 vasp.5.4.4.18Apr17-6-g9f103f2a35 (build Oct 20 2021 08:33:53) complex           
 executed on             LinuxGNU date 2024.03.20  00:54:11
 running on   32 total cores
 distrk:  each k-point on   32 cores,    1 groups
 distr:  one band on NCORES_PER_BAND=   4 cores,    8 groups


--------------------------------------------------------------------------------------------------------


 INCAR:
 POTCAR:    PAW_PBE C 08Apr2002                   
 POTCAR:    PAW_PBE H 15Jun2001                   
 POTCAR:    PAW_PBE O 08Apr2002                   
 POTCAR:    PAW_PBE Si 05Jan2001                  
 POTCAR:    PAW_PBE W 08Apr2002                   
 POTCAR:    PAW_PBE C 08Apr2002                   
   VRHFIN =C: s2p2                                                              
   LEXCH  = PE                                                                  
   EATOM  =   147.1560 eV,   10.8157 Ry                                         
                                                                                
   TITEL  = PAW_PBE C 08Apr2002                                                 
   LULTRA =        F    use ultrasoft PP ?                                      
   IUNSCR =        1    unscreen: 0-lin 1-nonlin 2-no                           
   RPACOR =    1.200    partial core radius                                     
   POMASS =   12.011; ZVAL   =    4.000    mass and valenz                      
   RCORE  =    1.500    outmost cutoff radius                                   
   RWIGS  =    1.630; RWIGS  =    0.863    wigner-seitz radius (au A)           
   ENMAX  =  400.000; ENMIN  =  300.000 eV                                      
   ICORE  =        2    local potential                                         
   LCOR   =        T    correct aug charges                                     
   LPAW   =        T    paw PP                                                  
   EAUG   =  644.873                                                            
   DEXC   =    0.000                                                            
   RMAX   =    1.529    core radius for proj-oper                               
   RAUG   =    1.300    factor for augmentation sphere                          
   RDEP   =    1.501    radius for radial grids                                 
   RDEPT  =    1.300    core radius for aug-charge                              
                                                                                
   Atomic configuration                                                         
    4 entries                                                                   
     n  l   j            E        occ.                                          
     1  0  0.50      -273.3789   2.0000                                         
     2  0  0.50       -13.7508   2.0000                                         
     2  1  0.50        -5.2854   2.0000                                         
     3  2  1.50        -5.4423   0.0000                                         
   Description                                                                  
     l       E           TYP  RCUT    TYP  RCUT                                 
     0    -13.7508458     23  1.200                                             
     0     -8.2022199     23  1.200                                             
     1     -5.2854383     23  1.500                                             
     1     34.0145650     23  1.500                                             
     2     -5.4423304      7  1.500                                             
  local pseudopotential read in
  partial core-charges read in
  partial kinetic energy density read in
  atomic valenz-charges read in
  non local Contribution for L=           0  read in
    real space projection operators read in
  non local Contribution for L=           0  read in
    real space projection operators read in
  non local Contribution for L=           1  read in
    real space projection operators read in
  non local Contribution for L=           1  read in
    real space projection operators read in
    PAW grid and wavefunctions read in

   number of l-projection  operators is LMAX  =           4
   number of lm-projection operators is LMMAX =           8

 POTCAR:    PAW_PBE H 15Jun2001                   
   VRHFIN =H: ultrasoft test                                                    
   LEXCH  = PE                                                                  
   EATOM  =    12.4884 eV,    0.9179 Ry                                         
                                                                                
   TITEL  = PAW_PBE H 15Jun2001                                                 
   LULTRA =        F    use ultrasoft PP ?                                      
   IUNSCR =        0    unscreen: 0-lin 1-nonlin 2-no                           
   RPACOR =    0.000    partial core radius                                     
   POMASS =    1.000; ZVAL   =    1.000    mass and valenz                      
   RCORE  =    1.100    outmost cutoff radius                                   
   RWIGS  =    0.700; RWIGS  =    0.370    wigner-seitz radius (au A)           
   ENMAX  =  250.000; ENMIN  =  200.000 eV                                      
   RCLOC  =    0.701    cutoff for local pot                                    
   LCOR   =        T    correct aug charges                                     
   LPAW   =        T    paw PP                                                  
   EAUG   =  400.000                                                            
   RMAX   =    1.123    core radius for proj-oper                               
   RAUG   =    1.200    factor for augmentation sphere                          
   RDEP   =    1.112    radius for radial grids                                 
   RDEPT  =    0.926    core radius for aug-charge                              
                                                                                
   Atomic configuration                                                         
    2 entries                                                                   
     n  l   j            E        occ.                                          
     1  0  0.50        -6.4927   1.0000                                         
     2  1  0.50        -3.4015   0.0000                                         
   Description                                                                  
     l       E           TYP  RCUT    TYP  RCUT                                 
     0     -6.4927494     23  1.100                                             
     0      6.8029130     23  1.100                                             
     1     -4.0817478     23  1.100                                             
  local pseudopotential read in
  atomic valenz-charges read in
  non local Contribution for L=           0  read in
    real space projection operators read in
  non local Contribution for L=           0  read in
    real space projection operators read in
  non local Contribution for L=           1  read in
    real space projection operators read in
    PAW grid and wavefunctions read in

   number of l-projection  operators is LMAX  =           3
   number of lm-projection operators is LMMAX =           5

 POTCAR:    PAW_PBE O 08Apr2002                   
   VRHFIN =O: s2p4                                                              
   LEXCH  = PE                                                                  
   EATOM  =   432.3788 eV,   31.7789 Ry                                         
                                                                                
   TITEL  = PAW_PBE O 08Apr2002                                                 
   LULTRA =        F    use ultrasoft PP ?                                      
   IUNSCR =        1    unscreen: 0-lin 1-nonlin 2-no                           
   RPACOR =    1.200    partial core radius                                     
   POMASS =   16.000; ZVAL   =    6.000    mass and valenz                      
   RCORE  =    1.520    outmost cutoff radius                                   
   RWIGS  =    1.550; RWIGS  =    0.820    wigner-seitz radius (au A)           
   ENMAX  =  400.000; ENMIN  =  300.000 eV                                      
   ICORE  =        2    local potential                                         
   LCOR   =        T    correct aug charges                                     
   LPAW   =        T    paw PP                                                  
   EAUG   =  605.392                                                            
   DEXC   =    0.000                                                            
   RMAX   =    1.553    core radius for proj-oper                               
   RAUG   =    1.300    factor for augmentation sphere                          
   RDEP   =    1.550    radius for radial grids                                 
   RDEPT  =    1.329    core radius for aug-charge                              
                                                                                
   Atomic configuration                                                         
    4 entries                                                                   
     n  l   j            E        occ.                                          
     1  0  0.50      -514.6923   2.0000                                         
     2  0  0.50       -23.9615   2.0000                                         
     2  1  0.50        -9.0305   4.0000                                         
     3  2  1.50        -9.5241   0.0000                                         
   Description                                                                  
     l       E           TYP  RCUT    TYP  RCUT                                 
     0    -23.9615318     23  1.200                                             
     0     -9.5240782     23  1.200                                             
     1     -9.0304911     23  1.520                                             
     1      8.1634956     23  1.520                                             
     2     -9.5240782      7  1.500                                             
  local pseudopotential read in
  partial core-charges read in
  partial kinetic energy density read in
  kinetic energy density of atom read in
  atomic valenz-charges read in
  non local Contribution for L=           0  read in
    real space projection operators read in
  non local Contribution for L=           0  read in
    real space projection operators read in
  non local Contribution for L=           1  read in
    real space projection operators read in
  non local Contribution for L=           1  read in
    real space projection operators read in
    PAW grid and wavefunctions read in

   number of l-projection  operators is LMAX  =           4
   number of lm-projection operators is LMMAX =           8

 POTCAR:    PAW_PBE Si 05Jan2001                  
   VRHFIN =Si: s2p2                                                             
   LEXCH  = PE                                                                  
   EATOM  =   103.0669 eV,    7.5752 Ry                                         
                                                                                
   TITEL  = PAW_PBE Si 05Jan2001                                                
   LULTRA =        F    use ultrasoft PP ?                                      
   IUNSCR =        1    unscreen: 0-lin 1-nonlin 2-no                           
   RPACOR =    1.500    partial core radius                                     
   POMASS =   28.085; ZVAL   =    4.000    mass and valenz                      
   RCORE  =    1.900    outmost cutoff radius                                   
   RWIGS  =    2.480; RWIGS  =    1.312    wigner-seitz radius (au A)           
   ENMAX  =  245.345; ENMIN  =  184.009 eV                                      
   ICORE  =        2    local potential                                         
   LCOR   =        T    correct aug charges                                     
   LPAW   =        T    paw PP                                                  
   EAUG   =  322.069                                                            
   DEXC   =    0.000                                                            
   RMAX   =    1.950    core radius for proj-oper                               
   RAUG   =    1.300    factor for augmentation sphere                          
   RDEP   =    1.993    radius for radial grids                                 
   RDEPT  =    1.837    core radius for aug-charge                              
                                                                                
   Atomic configuration                                                         
    6 entries                                                                   
     n  l   j            E        occ.                                          
     1  0  0.50     -1785.8828   2.0000                                         
     2  0  0.50      -139.4969   2.0000                                         
     2  1  1.50       -95.5546   6.0000                                         
     3  0  0.50       -10.8127   2.0000                                         
     3  1  0.50        -4.0811   2.0000                                         
     3  2  1.50        -4.0817   0.0000                                         
   Description                                                                  
     l       E           TYP  RCUT    TYP  RCUT                                 
     0    -10.8127223     23  1.900                                             
     0     -7.6451159     23  1.900                                             
     1     -4.0811372     23  1.900                                             
     1      2.4879257     23  1.900                                             
     2     -4.0817478      7  1.900                                             
  local pseudopotential read in
  partial core-charges read in
  partial kinetic energy density read in
  atomic valenz-charges read in
  non local Contribution for L=           0  read in
    real space projection operators read in
  non local Contribution for L=           0  read in
    real space projection operators read in
  non local Contribution for L=           1  read in
    real space projection operators read in
  non local Contribution for L=           1  read in
    real space projection operators read in
    PAW grid and wavefunctions read in

   number of l-projection  operators is LMAX  =           4
   number of lm-projection operators is LMMAX =           8

 POTCAR:    PAW_PBE W 08Apr2002                   
   VRHFIN =W : 6s5d                                                             
   LEXCH  = PE                                                                  
   EATOM  =   204.6103 eV,   15.0384 Ry                                         
                                                                                
   TITEL  = PAW_PBE W 08Apr2002                                                 
   LULTRA =        F    use ultrasoft PP ?                                      
   IUNSCR =        1    unscreen: 0-lin 1-nonlin 2-no                           
   RPACOR =    2.330    partial core radius                                     
   POMASS =  183.850; ZVAL   =    6.000    mass and valenz                      
   RCORE  =    2.750    outmost cutoff radius                                   
   RWIGS  =    2.750; RWIGS  =    1.455    wigner-seitz radius (au A)           
   ENMAX  =  223.057; ENMIN  =  167.293 eV                                      
   RCLOC  =    2.147    cutoff for local pot                                    
   LCOR   =        T    correct aug charges                                     
   LPAW   =        T    paw PP                                                  
   EAUG   =  373.438                                                            
   DEXC   =    0.000                                                            
   RMAX   =    2.801    core radius for proj-oper                               
   RAUG   =    1.300    factor for augmentation sphere                          
   RDEP   =    2.886    radius for radial grids                                 
   RDEPT  =    2.230    core radius for aug-charge                              
                                                                                
   Atomic configuration                                                         
   16 entries                                                                   
     n  l   j            E        occ.                                          
     1  0  0.50    -69465.5836   2.0000                                         
     2  0  0.50    -11986.2642   2.0000                                         
     2  1  1.50    -10479.8616   6.0000                                         
     3  0  0.50     -2759.0758   2.0000                                         
     3  1  1.50     -2313.1857   6.0000                                         
     3  2  2.50     -1801.1185  10.0000                                         
     4  0  0.50      -567.6791   2.0000                                         
     4  1  1.50      -421.4694   6.0000                                         
     4  2  2.50      -236.3473  10.0000                                         
     4  3  3.50       -31.2666  14.0000                                         
     5  0  0.50       -77.1085   2.0000                                         
     5  1  1.50       -41.3856   6.0000                                         
     5  2  2.50        -3.3185   5.0000                                         
     6  0  0.50        -5.1438   1.0000                                         
     6  1  0.50        -3.8096   0.0000                                         
     5  3  2.50        -1.3606   0.0000                                         
   Description                                                                  
     l       E           TYP  RCUT    TYP  RCUT                                 
     2     -3.3185288     23  2.500                                             
     2     -1.5965414     23  2.500                                             
     0     -5.1438054     23  2.500                                             
     0      4.9117504     23  2.500                                             
     1      2.7211652     23  2.750                                             
     1     27.2116520     23  2.750                                             
  local pseudopotential read in
  partial core-charges read in
  partial kinetic energy density read in
  atomic valenz-charges read in
  non local Contribution for L=           2  read in
    real space projection operators read in
  non local Contribution for L=           2  read in
    real space projection operators read in
  non local Contribution for L=           0  read in
    real space projection operators read in
  non local Contribution for L=           0  read in
    real space projection operators read in
  non local Contribution for L=           1  read in
    real space projection operators read in
  non local Contribution for L=           1  read in
    real space projection operators read in
    PAW grid and wavefunctions read in

   number of l-projection  operators is LMAX  =           6
   number of lm-projection operators is LMMAX =          18

 Optimization of the real space projectors (new method)

 maximal supplied QI-value         = 25.13
 optimisation between [QCUT,QGAM] = [ 11.31, 22.87] = [ 35.82,146.48] Ry 
 Optimized for a Real-space Cutoff    1.00 Angstroem

   l    n(q)    QCUT    max X(q) W(low)/X(q) W(high)/X(q)  e(spline) 
   0      7    11.310   115.676    0.43E-03    0.13E-02    0.19E-06
   0      7    11.310    87.132    0.43E-03    0.13E-02    0.18E-06
   1      6    11.310     4.429    0.42E-03    0.74E-03    0.11E-06
   1      6    11.310     2.733    0.34E-03    0.55E-03    0.92E-07
 Optimization of the real space projectors (new method)

 maximal supplied QI-value         = 34.20
 optimisation between [QCUT,QGAM] = [ 11.29, 22.57] = [ 35.68,142.71] Ry 
 Optimized for a Real-space Cutoff    1.16 Angstroem

   l    n(q)    QCUT    max X(q) W(low)/X(q) W(high)/X(q)  e(spline) 
   0      8    11.287    19.460    0.40E-03    0.73E-03    0.16E-06
   0      8    11.287    12.209    0.38E-03    0.70E-03    0.15E-06
   1      7    11.287     4.655    0.22E-03    0.25E-04    0.22E-06
 Optimization of the real space projectors (new method)

 maximal supplied QI-value         = 24.76
 optimisation between [QCUT,QGAM] = [ 11.39, 22.77] = [ 36.31,145.25] Ry 
 Optimized for a Real-space Cutoff    1.00 Angstroem

   l    n(q)    QCUT    max X(q) W(low)/X(q) W(high)/X(q)  e(spline) 
   0      7    11.387    20.381    0.39E-03    0.13E-02    0.15E-06
   0      7    11.387    15.268    0.42E-03    0.14E-02    0.17E-06
   1      6    11.387     5.964    0.41E-03    0.11E-02    0.17E-06
   1      6    11.387     5.382    0.39E-03    0.87E-03    0.15E-06
 Optimization of the real space projectors (new method)

 maximal supplied QI-value         = 19.84
 optimisation between [QCUT,QGAM] = [ 11.31, 22.82] = [ 35.82,145.81] Ry 
 Optimized for a Real-space Cutoff    1.16 Angstroem

   l    n(q)    QCUT    max X(q) W(low)/X(q) W(high)/X(q)  e(spline) 
   0      8    11.310   159.560    0.27E-03    0.30E-03    0.39E-07
   0      8    11.310   115.863    0.27E-03    0.30E-03    0.38E-07
   1      7    11.310    88.339    0.28E-03    0.28E-03    0.77E-07
   1      7    11.310    48.592    0.27E-03    0.27E-03    0.74E-07
 Optimization of the real space projectors (new method)

 maximal supplied QI-value         = 13.61
 optimisation between [QCUT,QGAM] = [ 11.43, 22.86] = [ 36.58,146.31] Ry 
 Optimized for a Real-space Cutoff    1.56 Angstroem

   l    n(q)    QCUT    max X(q) W(low)/X(q) W(high)/X(q)  e(spline) 
   2     10    11.429   130.855    0.22E-03    0.64E-03    0.11E-05
   2     10    11.429   114.007    0.22E-03    0.64E-03    0.11E-05
   0     11    11.429    84.709    0.39E-04    0.67E-04    0.23E-06
   0     11    11.429    49.163    0.35E-04    0.62E-04    0.21E-06
   1     10    11.429    15.765    0.84E-04    0.15E-03    0.24E-06
   1     10    11.429    10.638    0.58E-04    0.12E-03    0.19E-06

 ----------------------------------------------------------------------------- 
|                                                                             |
|  ADVICE TO THIS USER RUNNING 'VASP/VAMP'   (HEAR YOUR MASTER'S VOICE ...):  |
|                                                                             |
|      You enforced a specific xc-type in the INCAR file,                     |
|      a different type was found on the POTCAR file                          |
|          I HOPE YOU KNOW, WHAT YOU ARE  DOING                               |
|                                                                             |
 ----------------------------------------------------------------------------- 

  PAW_PBE C 08Apr2002                   :
 energy of atom  1       EATOM= -147.1560
 kinetic energy error for atom=    0.0076 (will be added to EATOM!!)
  PAW_PBE H 15Jun2001                   :
 energy of atom  2       EATOM=  -12.4884
 kinetic energy error for atom=    0.0020 (will be added to EATOM!!)
  PAW_PBE O 08Apr2002                   :
 energy of atom  3       EATOM= -432.3788
 kinetic energy error for atom=    0.0224 (will be added to EATOM!!)
  PAW_PBE Si 05Jan2001                  :
 energy of atom  4       EATOM= -103.0669
 kinetic energy error for atom=    0.0006 (will be added to EATOM!!)
  PAW_PBE W 08Apr2002                   :
 energy of atom  5       EATOM= -204.6103
 kinetic energy error for atom=    0.0017 (will be added to EATOM!!)


 POSCAR: C  H  O  Si W                           
  positions in direct lattice
  velocities in cartesian coordinates
 exchange correlation table for  LEXCH =        9
   RHO(1)=    0.500       N(1)  =     2000
   RHO(2)=  100.500       N(2)  =     4000

 VTST: version 3.2, (02/03/18)

 CHAIN: initializing optimizer
 
 OPT: Using VASP QUASI-newton optimizer
 CHAIN: Read ICHAIN            0

 POSCAR: C  H  O  Si W                           
  positions in direct lattice
  velocities in cartesian coordinates



--------------------------------------------------------------------------------------------------------


 ion  position               nearest neighbor table
   1  0.522  0.552  0.760-  49 1.10   3 1.53   2 1.54 277 2.18
   2  0.561  0.485  0.767-  50 1.10 210 1.49   4 1.52   1 1.54 277 2.63
   3  0.552  0.627  0.754-  52 1.10  53 1.10  51 1.10   1 1.53
   4  0.547  0.433  0.809-  56 1.10  55 1.10  54 1.10   2 1.52
   5  0.761  0.104  0.651- 131 0.97
   6  0.926  0.279  0.356-  79 0.98
   7  0.793  0.207  0.373- 114 0.97
   8  0.975  0.944  0.325- 123 0.97
   9  0.626  0.963  0.375- 125 0.98
  10  0.821  0.995  0.369- 143 0.97
  11  0.750  0.141  0.458- 181 0.98
  12  0.915  0.249  0.510- 186 0.97
  13  0.583  0.304  0.306- 191 0.97
  14  0.891  0.335  0.616-  97 0.98
  15  0.592  0.359  0.617- 142 0.97
  16  0.593  0.871  0.578- 184 0.99
  17  0.034  0.337  0.652- 190 0.97
  18  0.935  0.420  0.454- 179 0.98
  19  0.746  0.530  0.422-  93 1.00
  20  0.799  0.383  0.635- 171 0.97
  21  0.591  0.569  0.378- 105 0.99
  22  0.718  0.646  0.383- 128 0.99
  23  0.841  0.542  0.420- 134 0.98
  24  0.005  0.604  0.358- 139 0.97
  25  0.828  0.712  0.468- 180 0.99
  26  0.874  0.598  0.723-  59 0.97
  27  0.520  0.986  0.422- 141 0.99
  28  0.223  0.980  0.393- 182 1.00
  29  0.216  0.238  0.319- 197 0.99
  30  0.158  0.330  0.279- 188 0.97
  31  0.342  0.156  0.331- 189 0.98
  32  0.223  0.046  0.323- 196 0.97
  33  0.511  0.827  0.547- 199 0.97
  34  0.372  0.238  0.648-  84 0.97
  35  0.243  0.093  0.599- 135 0.98
  36  0.315  0.487  0.442-  58 0.99
  37  0.409  0.439  0.406- 147 0.98
  38  0.398  0.793  0.389- 185 0.97
  39  0.244  0.655  0.294- 193 0.97
  40  0.312  0.418  0.369- 194 0.98
  41  0.405  0.584  0.339- 195 0.97
  42  0.139  0.488  0.352- 187 0.98
  43  0.593  0.698  0.352-  88 0.97
  44  0.469  0.861  0.444- 198 0.99
  45  0.122  0.323  0.612- 107 0.97
  46  0.073  0.664  0.646- 138 0.97
  47  0.242  0.388  0.683- 183 0.97
  48  0.247  0.815  0.670- 192 0.97
  49  0.488  0.556  0.789-   1 1.10
  50  0.607  0.502  0.767-   2 1.10
  51  0.572  0.644  0.789-   3 1.10
  52  0.586  0.623  0.726-   3 1.10
  53  0.522  0.670  0.742-   3 1.10
  54  0.556  0.461  0.845-   4 1.10
  55  0.502  0.418  0.808-   4 1.10
  56  0.573  0.383  0.807-   4 1.10
  57  0.369  0.648  0.439- 231 1.66 266 1.68
  58  0.347  0.504  0.420-  36 0.99 266 1.67
  59  0.861  0.565  0.697-  26 0.97 237 1.64
  60  0.349  0.960  0.530- 242 1.68 275 1.70
  61  0.033  0.933  0.528- 257 1.63 268 1.65
  62  0.636  0.079  0.489- 235 1.60 224 1.65
  63  0.069  0.052  0.395- 223 1.64 215 1.65
  64  0.452  0.130  0.421- 240 1.65 221 1.65
  65  0.806  0.214  0.483- 239 1.67 236 1.69
  66  0.973  0.182  0.599- 217 1.63 247 1.65
  67  0.275  0.299  0.449- 263 1.65 273 1.66
  68  0.556  0.775  0.442- 244 1.51 271 1.66
  69  0.391  0.975  0.620- 261 1.65 275 1.66
  70  0.178  0.350  0.405- 263 1.66 238 1.67
  71  0.866  0.684  0.637- 241 1.64 237 1.65
  72  0.866  0.967  0.467- 233 1.60 248 1.65
  73  0.301  0.761  0.458- 231 1.65 245 1.67
  74  0.422  0.261  0.380- 240 1.67 260 1.67
  75  0.811  0.465  0.520- 267 1.63 214 1.64
  76  0.984  0.073  0.521- 257 1.68 217 1.69
  77  0.507  0.466  0.628- 276 1.65 277 1.97
  78  0.035  0.920  0.429- 268 1.64 215 1.65
  79  0.963  0.303  0.351-   6 0.98 216 1.65
  80  0.070  0.336  0.376- 216 1.64 238 1.65
  81  0.208  0.729  0.395- 245 1.66 255 1.67
  82  0.039  0.419  0.499- 270 1.64 243 1.65
  83  0.240  0.286  0.588- 251 1.63 228 1.63
  84  0.397  0.196  0.645-  34 0.97 222 1.64
  85  0.454  0.566  0.578- 253 1.68 276 1.68
  86  0.910  0.749  0.557- 241 1.64 220 1.65
  87  0.869  0.108  0.442- 248 1.64 236 1.65
  88  0.573  0.667  0.376-  43 0.97 244 1.68
  89  0.142  0.159  0.376- 269 1.65 223 1.65
  90  0.351  0.766  0.607- 213 1.62 254 1.64
  91  0.911  0.845  0.483- 233 1.62 220 1.66
  92  0.061  0.537  0.442- 270 1.66 212 1.67
  93  0.708  0.555  0.420-  19 1.00 226 1.67
  94  0.075  0.817  0.483- 268 1.50 250 1.65
  95  0.700  0.828  0.433- 225 1.53 258 1.65
  96  0.730  0.049  0.543- 224 1.64 259 1.64
  97  0.919  0.302  0.632-  14 0.98 247 1.63
  98  0.735  0.853  0.613- 232 1.66 229 1.68
  99  0.625  0.527  0.486- 234 1.58 226 1.68
 100  0.557  0.630  0.467- 244 1.52 234 1.63
 101  0.425  0.249  0.556- 222 1.68 265 1.68
 102  0.978  0.728  0.477- 250 1.65 220 1.65
 103  0.654  0.594  0.633- 272 1.65 218 1.67
 104  0.397  0.747  0.515- 231 1.66 213 1.66
 105  0.603  0.518  0.386-  21 0.99 226 1.65
 106  0.720  0.631  0.557- 256 1.63 272 1.64
 107  0.147  0.364  0.620-  45 0.97 228 1.64
 108  0.067  0.549  0.542- 270 1.63 274 1.64
 109  0.819  0.885  0.537- 233 1.65 232 1.67
 110  0.828  0.355  0.452- 239 1.65 214 1.65
 111  0.527  0.301  0.533- 265 1.62 246 1.63
 112  0.737  0.499  0.595- 272 1.65 267 1.66
 113  0.557  0.172  0.395- 252 1.59 221 1.64
 114  0.806  0.256  0.383-   7 0.97 239 1.67
 115  0.237  0.953  0.508- 242 1.58 227 1.67
 116  0.693  0.777  0.541- 256 1.64 229 1.64
 117  0.924  0.950  0.553- 257 1.65 233 1.65
 118  0.526  0.318  0.399- 252 1.45 260 1.66
 119  0.467  0.993  0.546- 261 1.69 262 1.70
 120  0.838  0.095  0.540- 236 1.66 259 1.66
 121  0.538  0.116  0.486- 235 1.61 221 1.67
 122  0.350  0.187  0.440- 273 1.63 240 1.65
 123  0.012  0.962  0.335-   8 0.97 215 1.65
 124  0.454  0.590  0.672- 253 1.66 277 1.94
 125  0.655  0.925  0.379-   9 0.98 225 1.66
 126  0.076  0.686  0.436- 212 1.65 250 1.66
 127  0.451  0.407  0.552- 276 1.67 265 1.70
 128  0.719  0.700  0.380-  22 0.99 258 1.65
 129  0.451  0.707  0.600- 213 1.63 253 1.63
 130  0.753  0.709  0.476- 256 1.63 258 1.69
 131  0.779  0.121  0.621-   5 0.97 259 1.64
 132  0.993  0.308  0.448- 243 1.66 216 1.68
 133  0.534  0.508  0.532- 276 1.64 234 1.65
 134  0.817  0.499  0.423-  23 0.98 214 1.69
 135  0.236  0.146  0.605-  35 0.98 251 1.62
 136  0.204  0.831  0.471- 227 1.50 245 1.63
 137  0.240  0.559  0.523- 230 1.65 219 1.66
 138  0.061  0.626  0.624-  46 0.97 274 1.63
 139  0.046  0.602  0.354-  24 0.97 212 1.65
 140  0.801  0.979  0.606- 232 1.66 259 1.68
 141  0.538  0.028  0.405-  27 0.99 221 1.66
 142  0.607  0.312  0.605-  15 0.97 246 1.63
 143  0.862  0.004  0.369-  10 0.97 248 1.66
 144  0.095  0.149  0.467- 249 1.62 223 1.65
 145  0.171  0.204  0.531- 249 1.61 251 1.63
 146  0.641  0.704  0.455- 244 1.65 258 1.66
 147  0.437  0.410  0.386-  37 0.98 260 1.66
 148  0.574  0.060  0.572- 262 1.62 235 1.65
 149  0.151  0.593  0.389- 255 1.68 212 1.68
 150  0.268  0.602  0.392- 266 1.65 255 1.67
 151  0.440  0.322  0.470- 265 1.65 260 1.69
 152  0.238  0.159  0.430- 269 1.65 273 1.67
 153  0.073  0.150  0.563- 249 1.64 217 1.64
 154  0.845  0.544  0.600- 237 1.66 267 1.66
 155  0.621  0.280  0.411- 264 1.65 252 1.66
 156  0.603  0.892  0.467- 271 1.29 225 1.67
 157  0.031  0.195  0.389- 216 1.66 223 1.66
 158  0.607  0.196  0.547- 235 1.62 246 1.64
 159  0.133  0.938  0.479- 268 1.65 227 1.66
 160  0.080  0.280  0.511- 243 1.64 249 1.65
 161  0.372  0.107  0.568- 275 1.63 222 1.69
 162  0.067  0.697  0.536- 250 1.63 274 1.63
 163  0.666  0.415  0.430- 226 1.65 264 1.65
 164  0.799  0.730  0.564- 256 1.61 241 1.63
 165  0.704  0.957  0.470- 224 1.65 225 1.66
 166  0.599  0.635  0.553- 234 1.63 218 1.63
 167  0.723  0.294  0.452- 239 1.63 264 1.64
 168  0.978  0.314  0.547- 243 1.64 247 1.67
 169  0.159  0.630  0.571- 230 1.63 274 1.65
 170  0.633  0.327  0.508- 246 1.62 264 1.65
 171  0.820  0.396  0.606-  20 0.97 267 1.65
 172  0.959  0.027  0.417- 248 1.64 215 1.65
 173  0.282  0.195  0.519- 273 1.63 251 1.65
 174  0.249  0.443  0.461- 219 1.66 263 1.71
 175  0.273  0.851  0.569- 242 1.64 254 1.65
 176  0.204  0.686  0.487- 230 1.63 245 1.66
 177  0.147  0.476  0.493- 219 1.63 270 1.65
 178  0.224  0.423  0.557- 219 1.61 228 1.63
 179  0.911  0.453  0.474-  18 0.98 214 1.65
 180  0.870  0.705  0.464-  25 0.99 220 1.65
 181  0.738  0.093  0.445-  11 0.98 224 1.66
 182  0.222  0.930  0.408-  28 1.00 227 1.64
 183  0.252  0.403  0.649-  47 0.97 228 1.64
 184  0.630  0.883  0.593-  16 0.99 229 1.62
 185  0.410  0.789  0.423-  38 0.97 231 1.68
 186  0.918  0.196  0.508-  12 0.97 236 1.65
 187  0.133  0.444  0.332-  42 0.98 238 1.65
 188  0.155  0.304  0.311-  30 0.97 238 1.69
 189  0.373  0.131  0.348-  31 0.98 240 1.66
 190  0.035  0.292  0.633-  17 0.97 247 1.66
 191  0.573  0.257  0.320-  13 0.97 252 1.66
 192  0.246  0.770  0.650-  48 0.97 254 1.64
 193  0.207  0.648  0.310-  39 0.97 255 1.65
 194  0.275  0.392  0.367-  40 0.98 263 1.66
 195  0.365  0.598  0.342-  41 0.97 266 1.67
 196  0.226  0.056  0.358-  32 0.97 269 1.69
 197  0.241  0.196  0.329-  29 0.99 269 1.66
 198  0.501  0.892  0.455-  44 0.99 271 1.60
 199  0.550  0.828  0.534-  33 0.97 271 1.67
 200  0.545  0.646  0.633- 218 1.65 253 1.67
 201  0.478  0.124  0.597- 222 1.65 262 1.65
 202  0.263  0.695  0.568- 254 1.65 230 1.65
 203  0.442  0.849  0.581- 261 1.66 213 1.68
 204  0.766  0.617  0.650- 272 1.65 237 1.66
 205  0.845  0.832  0.623- 241 1.66 232 1.68
 206  0.640  0.740  0.621- 218 1.67 229 1.71
 207  0.008  0.033  0.603- 257 1.69 217 1.69
 208  0.284  0.004  0.593- 275 1.70 242 1.70
 209  0.503  0.973  0.629- 261 1.69 262 1.70
 210  0.552  0.446  0.719-   2 1.49 277 1.92
 211  0.428  0.452  0.723- 277 1.72
 212  0.083  0.606  0.406- 139 1.65 126 1.65  92 1.67 149 1.68 270 3.13
 213  0.409  0.767  0.574-  90 1.62 129 1.63 104 1.66 203 1.68 254 3.05
 214  0.842  0.441  0.468-  75 1.64 110 1.65 179 1.65 134 1.69
 215  0.017  0.990  0.394-  63 1.65 172 1.65  78 1.65 123 1.65 268 3.11 223 3.13
 216  0.015  0.284  0.391-  80 1.64  79 1.65 157 1.66 132 1.68 243 3.11 223 3.11
 217  0.009  0.115  0.573-  66 1.63 153 1.64  76 1.69 207 1.69 257 2.39 249 3.05 247 3.07
 218  0.610  0.658  0.611- 166 1.63 200 1.65 103 1.67 206 1.67 272 2.87 234 3.14
 219  0.214  0.476  0.510- 178 1.61 177 1.63 137 1.66 174 1.66 230 3.11 263 3.14
 220  0.915  0.756  0.496- 102 1.65 180 1.65  86 1.65  91 1.66 233 2.99 241 3.03
 221  0.521  0.110  0.426- 113 1.64  64 1.65 141 1.66 121 1.67 252 3.08 235 3.12
 222  0.418  0.171  0.590-  84 1.64 201 1.65 101 1.68 161 1.69 275 3.13 262 3.14
 223  0.083  0.139  0.407-  63 1.64 144 1.65  89 1.65 157 1.66 216 3.11 215 3.13 269 3.14
 224  0.702  0.045  0.487-  96 1.64 165 1.65  62 1.65 181 1.66 235 3.09 225 3.10 259 3.15
 225  0.665  0.898  0.437-  95 1.53 165 1.66 125 1.66 156 1.67 271 2.83 258 3.06 224 3.10
 226  0.650  0.504  0.430- 105 1.65 163 1.65  93 1.67  99 1.68 234 3.07
 227  0.198  0.912  0.464- 136 1.50 182 1.64 159 1.66 115 1.67 245 3.01 242 3.07 268 3.07
 228  0.214  0.367  0.604-  83 1.63 178 1.63 107 1.64 183 1.64
 229  0.674  0.814  0.595- 184 1.62 116 1.64  98 1.68 206 1.71 256 2.90
 230  0.217  0.642  0.539- 169 1.63 176 1.63 202 1.65 137 1.65 245 3.09 219 3.11 274 3.12
 231  0.369  0.735  0.459-  73 1.65 104 1.66  57 1.66 185 1.68
 232  0.798  0.889  0.596- 140 1.66  98 1.66 109 1.67 205 1.68 241 2.86 233 2.99 259 3.15
 233  0.880  0.912  0.512-  72 1.60  91 1.62 109 1.65 117 1.65 220 2.99 232 2.99 257 3.05 248 3.13

 234  0.577  0.575  0.512-  99 1.58 166 1.63 100 1.63 133 1.65 244 3.00 226 3.07 218 3.14 276 3.15

 235  0.590  0.116  0.525-  62 1.60 121 1.61 158 1.62 148 1.65 262 2.85 224 3.09 221 3.12 246 3.13

 236  0.858  0.152  0.495- 186 1.65  87 1.65 120 1.66  65 1.69 248 3.07 239 3.15
 237  0.835  0.604  0.646-  59 1.64  71 1.65 154 1.66 204 1.66 272 2.93 267 3.01 241 3.01
 238  0.134  0.360  0.357- 187 1.65  80 1.65  70 1.67 188 1.69 263 3.11
 239  0.791  0.280  0.442- 167 1.63 110 1.65 114 1.67  65 1.67 236 3.15
 240  0.399  0.177  0.396-  64 1.65 122 1.65 189 1.66  74 1.67 260 3.07
 241  0.856  0.750  0.597- 164 1.63  71 1.64  86 1.64 205 1.66 232 2.86 237 3.01 220 3.03
 242  0.283  0.936  0.550- 115 1.58 175 1.64  60 1.68 208 1.70 275 2.38 227 3.07
 243  0.023  0.330  0.502- 160 1.64 168 1.64  82 1.65 132 1.66 247 3.11 216 3.11 249 3.13
 244  0.575  0.695  0.436-  68 1.51 100 1.52 146 1.65  88 1.68 234 3.00 271 3.06 258 3.10
 245  0.230  0.753  0.452- 136 1.63 176 1.66  81 1.66  73 1.67 255 2.97 227 3.01 230 3.09
 246  0.594  0.285  0.548- 170 1.62 111 1.63 142 1.63 158 1.64 235 3.13
 247  0.975  0.272  0.603-  97 1.63  66 1.65 190 1.66 168 1.67 217 3.07 243 3.11
 248  0.889  0.025  0.424-  87 1.64 172 1.64  72 1.65 143 1.66 236 3.07 233 3.13
 249  0.105  0.196  0.518- 145 1.61 144 1.62 153 1.64 160 1.65 217 3.05 243 3.13
 250  0.048  0.733  0.483- 162 1.63 102 1.65  94 1.65 126 1.66 268 3.05 274 3.15
 251  0.232  0.206  0.561- 135 1.62  83 1.63 145 1.63 173 1.65 273 3.03
 252  0.561  0.258  0.381- 118 1.45 113 1.59 155 1.66 191 1.66 260 2.87 221 3.08
 253  0.476  0.628  0.620- 129 1.63 124 1.66 200 1.67  85 1.68 276 2.95 277 3.14
 254  0.281  0.771  0.598- 192 1.64  90 1.64 202 1.65 175 1.65 213 3.05
 255  0.209  0.643  0.372- 193 1.65 150 1.67  81 1.67 149 1.68 245 2.97
 256  0.740  0.711  0.536- 164 1.61 106 1.63 130 1.63 116 1.64 229 2.90 258 2.91 272 3.07
 257  0.987  0.991  0.550-  61 1.63 117 1.65  76 1.68 207 1.69 217 2.39 233 3.05
 258  0.703  0.737  0.434-  95 1.65 128 1.65 146 1.66 130 1.69 256 2.91 225 3.06 244 3.10
 259  0.788  0.059  0.577- 131 1.64  96 1.64 120 1.66 140 1.68 232 3.15 224 3.15
 260  0.456  0.328  0.409- 147 1.66 118 1.66  74 1.67 151 1.69 252 2.87 240 3.07
 261  0.449  0.938  0.594-  69 1.65 203 1.66 209 1.69 119 1.69 262 2.36 275 2.74
 262  0.508  0.043  0.586- 148 1.62 201 1.65 119 1.70 209 1.70 261 2.36 235 2.85 222 3.14
 263  0.244  0.370  0.421-  67 1.65  70 1.66 194 1.66 174 1.71 238 3.11 219 3.14
 264  0.659  0.330  0.450- 167 1.64 155 1.65 163 1.65 170 1.65
 265  0.460  0.320  0.529- 111 1.62 151 1.65 101 1.68 127 1.70
 266  0.337  0.590  0.399- 150 1.65 195 1.67  58 1.67  57 1.68
 267  0.803  0.476  0.580-  75 1.63 171 1.65 154 1.66 112 1.66 272 2.91 237 3.01
 268  0.069  0.899  0.481-  94 1.50  78 1.64 159 1.65  61 1.65 250 3.05 227 3.07 215 3.11
 269  0.212  0.144  0.374-  89 1.65 152 1.65 197 1.66 196 1.69 273 3.12 223 3.14
 270  0.078  0.494  0.495- 108 1.63  82 1.64 177 1.65  92 1.66 274 3.10 212 3.13
 271  0.558  0.852  0.475- 156 1.29 198 1.60  68 1.66 199 1.67 225 2.83 244 3.06
 272  0.718  0.585  0.610- 106 1.64 103 1.65 204 1.65 112 1.65 218 2.87 267 2.91 237 2.93 256 3.07

 273  0.287  0.210  0.459- 173 1.63 122 1.63  67 1.66 152 1.67 251 3.03 269 3.12
 274  0.088  0.626  0.568- 138 1.63 162 1.63 108 1.64 169 1.65 270 3.10 230 3.12 250 3.15
 275  0.353  0.021  0.578- 161 1.63  69 1.66 208 1.70  60 1.70 242 2.38 261 2.74 222 3.13
 276  0.485  0.483  0.571- 133 1.64  77 1.65 127 1.67  85 1.68 253 2.95 234 3.15
 277  0.485  0.497  0.696- 211 1.72 210 1.92 124 1.94  77 1.97   1 2.18   2 2.63 253 3.14

  LATTYP: Found a simple orthorhombic cell.
 ALAT       =    18.1212369514
 B/A-ratio  =     1.2919258579
 C/A-ratio  =     1.4835282260
  
  Lattice vectors:
  
 A1 = (   0.0000000000, -18.1212369514,   0.0000000000)
 A2 = ( -23.4112945954,   0.0000000000,   0.0000000000)
 A3 = (   0.0000000000,   0.0000000000, -26.8833665073)


Analysis of symmetry for initial positions (statically):
=====================================================================
 Subroutine PRICEL returns:
 Original cell was already a primitive cell.
 

 Routine SETGRP: Setting up the symmetry group for a 
 simple orthorhombic supercell.


 Subroutine GETGRP returns: Found  1 space group operations
 (whereof  1 operations were pure point group operations)
 out of a pool of  8 trial point group operations.


The static configuration has the point symmetry C_1 .


Analysis of symmetry for dynamics (positions and initial velocities):
=====================================================================
 Subroutine PRICEL returns:
 Original cell was already a primitive cell.
 

 Routine SETGRP: Setting up the symmetry group for a 
 simple orthorhombic supercell.


 Subroutine GETGRP returns: Found  1 space group operations
 (whereof  1 operations were pure point group operations)
 out of a pool of  8 trial point group operations.


The dynamic configuration has the point symmetry C_1 .


Analysis of constrained symmetry for selective dynamics:
=====================================================================
 Subroutine PRICEL returns:
 Original cell was already a primitive cell.
 

 Routine SETGRP: Setting up the symmetry group for a 
 simple orthorhombic supercell.


 Subroutine GETGRP returns: Found  1 space group operations
 (whereof  1 operations were pure point group operations)
 out of a pool of  8 trial point group operations.


The constrained configuration has the point symmetry C_1 .


 Subroutine INISYM returns: Found  1 space group operations
 (whereof  1 operations are pure point group operations),
 and found     1 'primitive' translations



 KPOINTS: KPOINTS created by Atomic Simulation Env

Automatic generation of k-mesh.
Space group operators:
 irot       det(A)        alpha          n_x          n_y          n_z        tau_x        tau_y        tau_z
    1     1.000000     0.000000     1.000000     0.000000     0.000000     0.000000     0.000000     0.000000
 
 Subroutine IBZKPT returns following result:
 ===========================================
 
 Found      5 irreducible k-points:
 
 Following reciprocal coordinates:
            Coordinates               Weight
  0.000000  0.000000  0.000000      1.000000
  0.333333  0.000000  0.000000      2.000000
  0.000000  0.333333  0.000000      2.000000
  0.333333  0.333333  0.000000      2.000000
 -0.333333  0.333333  0.000000      2.000000
 
 Following cartesian coordinates:
            Coordinates               Weight
  0.000000  0.000000  0.000000      1.000000
  0.014238  0.000000  0.000000      2.000000
  0.000000  0.018395  0.000000      2.000000
  0.014238  0.018395  0.000000      2.000000
 -0.014238  0.018395  0.000000      2.000000
 


--------------------------------------------------------------------------------------------------------




 Dimension of arrays:
   k-points           NKPTS =      5   k-points in BZ     NKDIM =      5   number of bands    NBANDS=    776
   number of dos      NEDOS =    301   number of ions     NIONS =    277
   non local maximal  LDIM  =      6   non local SUM 2l+1 LMDIM =     18
   total plane-waves  NPLWV = ******
   max r-space proj   IRMAX =   2748   max aug-charges    IRDMAX=   9808
   dimension x,y,z NGX =   128 NGY =  100 NGZ =  150
   dimension x,y,z NGXF=   256 NGYF=  200 NGZF=  300
   support grid    NGXF=   256 NGYF=  200 NGZF=  300
   ions per type =               4  52 155  65   1
   NGX,Y,Z   is equivalent  to a cutoff of   9.09,  9.17,  9.28 a.u.
   NGXF,Y,Z  is equivalent  to a cutoff of  18.18, 18.35, 18.55 a.u.

 SYSTEM =  unknown system                          
 POSCAR =  C  H  O  Si W                           

 Startparameter for this run:
   NWRITE =      2    write-flag & timer
   PREC   = normal    normal or accurate (medium, high low for compatibility)
   ISTART =      0    job   : 0-new  1-cont  2-samecut
   ICHARG =      2    charge: 1-file 2-atom 10-const
   ISPIN  =      1    spin polarized calculation?
   LNONCOLLINEAR =      F non collinear calculations
   LSORBIT =      F    spin-orbit coupling
   INIWAV =      1    electr: 0-lowe 1-rand  2-diag
   LASPH  =      T    aspherical Exc in radial PAW
   METAGGA=      F    non-selfconsistent MetaGGA calc.

 Electronic Relaxation 1
   ENCUT  =  500.0 eV  36.75 Ry    6.06 a.u.  42.68 33.04 49.01*2*pi/ulx,y,z
   ENINI  =  500.0     initial cutoff
   ENAUG  =  644.9 eV  augmentation charge cutoff
   NELM   =     60;   NELMIN=  2; NELMDL=  0     # of ELM steps 
   EDIFF  = 0.1E-03   stopping-criterion for ELM
   LREAL  =      T    real-space projection
   NLSPLINE    = F    spline interpolate recip. space projectors
   LCOMPAT=      F    compatible to vasp.4.4
   GGA_COMPAT  = T    GGA compatible to vasp.4.4-vasp.4.6
   LMAXPAW     = -100 max onsite density
   LMAXMIX     =    2 max onsite mixed and CHGCAR
   VOSKOWN=      0    Vosko Wilk Nusair interpolation
   ROPT   =   -0.00050  -0.00050  -0.00050  -0.00050
   ROPT   =   -0.00050
 Ionic relaxation
   EDIFFG = -.5E-01   stopping-criterion for IOM
   NSW    =    150    number of steps for IOM
   NBLOCK =      1;   KBLOCK =    150    inner block; outer block 
   IBRION =      1    ionic relax: 0-MD 1-quasi-New 2-CG
   NFREE  =      0    steps in history (QN), initial steepest desc. (CG)
   ISIF   =      0    stress and relaxation
   IWAVPR =     11    prediction:  0-non 1-charg 2-wave 3-comb
   ISYM   =      2    0-nonsym 1-usesym 2-fastsym
   LCORR  =      T    Harris-Foulkes like correction to forces

   POTIM  = 0.5000    time-step for ionic-motion
   TEIN   =    0.0    initial temperature
   TEBEG  =    0.0;   TEEND  =   0.0 temperature during run
   SMASS  =  -3.00    Nose mass-parameter (am)
   estimated Nose-frequenzy (Omega)   =  0.10E-29 period in steps =****** mass=  -0.125E-25a.u.
   SCALEE = 1.0000    scale energy and forces
   NPACO  =    256;   APACO  = 16.0  distance and # of slots for P.C.
   PSTRESS=    0.0 pullay stress

  Mass of Ions in am
   POMASS =  12.01  1.00 16.00 28.09183.85
  Ionic Valenz
   ZVAL   =   4.00  1.00  6.00  4.00  6.00
  Atomic Wigner-Seitz radii
   RWIGS  =  -1.00 -1.00 -1.00 -1.00 -1.00
  virtual crystal weights 
   VCA    =   1.00  1.00  1.00  1.00  1.00
   NELECT =    1264.0000    total number of electrons
   NUPDOWN=      -1.0000    fix difference up-down

 DOS related values:
   EMIN   =  10.00;   EMAX   =-10.00  energy-range for DOS
   EFERMI =   0.00
   ISMEAR =     0;   SIGMA  =   0.20  broadening in eV -4-tet -1-fermi 0-gaus

 Electronic relaxation 2 (details)
   IALGO  =     68    algorithm
   LDIAG  =      T    sub-space diagonalisation (order eigenvalues)
   LSUBROT=      F    optimize rotation matrix (better conditioning)
   TURBO    =      0    0=normal 1=particle mesh
   IRESTART =      0    0=no restart 2=restart with 2 vectors
   NREBOOT  =      0    no. of reboots
   NMIN     =      0    reboot dimension
   EREF     =   0.00    reference energy to select bands
   IMIX   =      4    mixing-type and parameters
     AMIX     =   0.40;   BMIX     =  1.00
     AMIX_MAG =   1.60;   BMIX_MAG =  1.00
     AMIN     =   0.10
     WC   =   100.;   INIMIX=   1;  MIXPRE=   1;  MAXMIX= -45

 Intra band minimization:
   WEIMIN = 0.0010     energy-eigenvalue tresh-hold
   EBREAK =  0.32E-07  absolut break condition
   DEPER  =   0.30     relativ break condition  

   TIME   =   0.40     timestep for ELM

  volume/ion in A,a.u.               =      41.17       277.85
  Fermi-wavevector in a.u.,A,eV,Ry     =   0.786366  1.486017  8.413461  0.618372
  Thomas-Fermi vector in A             =   1.890890

 Write flags
   LWAVE        =      F    write WAVECAR
   LDOWNSAMPLE  =      F    k-point downsampling of WAVECAR
   LCHARG       =      F    write CHGCAR
   LVTOT        =      F    write LOCPOT, total local potential
   LVHAR        =      F    write LOCPOT, Hartree potential only
   LELF         =      F    write electronic localiz. function (ELF)
   LORBIT       =      0    0 simple, 1 ext, 2 COOP (PROOUT), +10 PAW based schemes


 Dipole corrections
   LMONO  =      F    monopole corrections only (constant potential shift)
   LDIPOL =      T    correct potential (dipole corrections)
   IDIPOL =      3    1-x, 2-y, 3-z, 4-all directions 
   EPSILON=  1.0000000 bulk dielectric constant

 Exchange correlation treatment:
   GGA     =    RP    GGA type
   LEXCH   =     9    internal setting for exchange type
   VOSKOWN=      0    Vosko Wilk Nusair interpolation
   LHFCALC =     F    Hartree Fock is set to
   LHFONE  =     F    Hartree Fock one center treatment
   AEXX    =    0.0000 exact exchange contribution

 Linear response parameters
   LEPSILON=     F    determine dielectric tensor
   LRPA    =     F    only Hartree local field effects (RPA)
   LNABLA  =     F    use nabla operator in PAW spheres
   LVEL    =     F    velocity operator in full k-point grid
   LINTERFAST=   F  fast interpolation
   KINTER  =     0    interpolate to denser k-point grid
   CSHIFT  =0.1000    complex shift for real part using Kramers Kronig
   OMEGAMAX=  -1.0    maximum frequency
   DEG_THRESHOLD= 0.2000000E-02 threshold for treating states as degnerate
   RTIME   =   -0.100 relaxation time in fs
  (WPLASMAI=    0.000 imaginary part of plasma frequency in eV, 0.658/RTIME)
   DFIELD  = 0.0000000 0.0000000 0.0000000 field for delta impulse in time

 Orbital magnetization related:
   ORBITALMAG=     F  switch on orbital magnetization
   LCHIMAG   =     F  perturbation theory with respect to B field
   DQ        =  0.001000  dq finite difference perturbation B field
   LLRAUG    =     F  two centre corrections for induced B field



--------------------------------------------------------------------------------------------------------


 quasi-Newton-method for relaxation of ions
   using selective dynamics as specified on POSCAR
 charge density and potential will be updated during run
 non-spin polarized calculation
 RMM-DIIS sequential band-by-band and
  variant of blocked Davidson during initial phase
 perform sub-space diagonalisation
    before iterative eigenvector-optimisation
 modified Broyden-mixing scheme, WC =      100.0
 initial mixing is a Kerker type mixing with AMIX =  0.4000 and BMIX =      1.0000
 Hartree-type preconditioning will be used
 using additional bands          144
 real space projection scheme for non local part
 use partial core corrections
 calculate Harris-corrections to forces   (improved forces if not selfconsistent)
 use gradient corrections 
 use of overlap-Matrix (Vanderbilt PP)
 Gauss-broadening in eV      SIGMA  =   0.20


--------------------------------------------------------------------------------------------------------


  energy-cutoff  :      500.00
  volume of cell :    11405.04
      direct lattice vectors                 reciprocal lattice vectors
    23.411294595  0.000000000  0.000000000     0.042714426  0.000000000  0.000000000
     0.000000000 18.121236951  0.000000000     0.000000000  0.055183871  0.000000000
     0.000000000  0.000000000 26.883366507     0.000000000  0.000000000  0.037197722

  length of vectors
    23.411294595 18.121236951 26.883366507     0.042714426  0.055183871  0.037197722



 k-points in units of 2pi/SCALE and weight: KPOINTS created by Atomic Simulation Env
   0.00000000  0.00000000  0.00000000       0.111
   0.01423814  0.00000000  0.00000000       0.222
   0.00000000  0.01839462  0.00000000       0.222
   0.01423814  0.01839462  0.00000000       0.222
  -0.01423814  0.01839462  0.00000000       0.222

 k-points in reciprocal lattice and weights: KPOINTS created by Atomic Simulation Env
   0.00000000  0.00000000  0.00000000       0.111
   0.33333333  0.00000000  0.00000000       0.222
   0.00000000  0.33333333  0.00000000       0.222
   0.33333333  0.33333333  0.00000000       0.222
  -0.33333333  0.33333333  0.00000000       0.222

 position of ions in fractional coordinates (direct lattice) 
   0.52165992  0.55241738  0.76009564
   0.56141833  0.48543977  0.76673772
   0.55211558  0.62653691  0.75350897
   0.54706687  0.43343737  0.80944088
   0.76089455  0.10390099  0.65115113
   0.92642768  0.27866896  0.35633493
   0.79333970  0.20727890  0.37345652
   0.97453911  0.94360860  0.32530279
   0.62573266  0.96347285  0.37523120
   0.82053840  0.99500666  0.36899263
   0.74999307  0.14117876  0.45803819
   0.91539660  0.24943825  0.50958066
   0.58349286  0.30426355  0.30592717
   0.89145539  0.33487714  0.61580826
   0.59234330  0.35903647  0.61665103
   0.59342716  0.87087471  0.57799272
   0.03383505  0.33748576  0.65247942
   0.93527051  0.41951423  0.45410146
   0.74613838  0.53031199  0.42248819
   0.79896216  0.38308545  0.63549534
   0.59110202  0.56868283  0.37803474
   0.71843379  0.64593279  0.38346059
   0.84115291  0.54242660  0.41959617
   0.00476455  0.60379815  0.35777830
   0.82835870  0.71235667  0.46794226
   0.87438183  0.59776519  0.72272251
   0.51999031  0.98556476  0.42170307
   0.22309457  0.98015484  0.39320502
   0.21637369  0.23785146  0.31923033
   0.15750105  0.32980623  0.27898292
   0.34154688  0.15558571  0.33077276
   0.22271586  0.04575893  0.32273843
   0.51097948  0.82735825  0.54679745
   0.37157525  0.23775195  0.64789204
   0.24330174  0.09342934  0.59883149
   0.31538097  0.48713646  0.44243467
   0.40895618  0.43873486  0.40569060
   0.39849950  0.79311361  0.38878680
   0.24420236  0.65543008  0.29432688
   0.31174138  0.41847571  0.36925764
   0.40547429  0.58427965  0.33881989
   0.13935762  0.48797365  0.35192946
   0.59326935  0.69798713  0.35239799
   0.46900683  0.86142747  0.44382838
   0.12197723  0.32269683  0.61198309
   0.07318890  0.66443466  0.64604373
   0.24182056  0.38774385  0.68268339
   0.24682010  0.81485564  0.67010497
   0.48845495  0.55582403  0.78900270
   0.60682452  0.50160259  0.76727210
   0.57165751  0.64389268  0.78900284
   0.58637214  0.62271894  0.72569319
   0.52224130  0.66983156  0.74159656
   0.55612580  0.46077054  0.84518248
   0.50151637  0.41845667  0.80821327
   0.57271285  0.38272584  0.80691287
   0.36894173  0.64835510  0.43900002
   0.34681565  0.50403387  0.42038813
   0.86076926  0.56547588  0.69655560
   0.34857577  0.96007573  0.53049986
   0.03345302  0.93262633  0.52844554
   0.63635548  0.07886855  0.48937667
   0.06864615  0.05226542  0.39511073
   0.45189954  0.12956232  0.42059728
   0.80588415  0.21365018  0.48316661
   0.97310498  0.18161383  0.59876702
   0.27476529  0.29917287  0.44851223
   0.55635417  0.77509129  0.44175101
   0.39102760  0.97464653  0.61952762
   0.17751724  0.34996845  0.40527312
   0.86648084  0.68406706  0.63733428
   0.86569601  0.96717693  0.46703846
   0.30104714  0.76093683  0.45792526
   0.42161095  0.26125222  0.37959630
   0.81122911  0.46523592  0.52013875
   0.98359530  0.07282526  0.52122856
   0.50744323  0.46611900  0.62818259
   0.03453641  0.91994776  0.42940526
   0.96303654  0.30319531  0.35125762
   0.06962669  0.33610577  0.37637178
   0.20829566  0.72864429  0.39536010
   0.03890126  0.41910192  0.49910875
   0.23987044  0.28617001  0.58779302
   0.39730220  0.19596021  0.64529806
   0.45399842  0.56639688  0.57791310
   0.90975598  0.74908170  0.55743655
   0.86912727  0.10804334  0.44227833
   0.57257679  0.66733185  0.37613173
   0.14242656  0.15912550  0.37597224
   0.35061775  0.76614246  0.60656183
   0.91099605  0.84504757  0.48317962
   0.06133801  0.53687171  0.44225348
   0.70833903  0.55516655  0.41995768
   0.07548726  0.81680680  0.48299416
   0.70046477  0.82755572  0.43263529
   0.73022525  0.04902750  0.54297544
   0.91893981  0.30228553  0.63193225
   0.73505367  0.85327304  0.61290130
   0.62512195  0.52739400  0.48637871
   0.55657330  0.62970304  0.46724942
   0.42522494  0.24892259  0.55596525
   0.97829009  0.72824363  0.47679564
   0.65397954  0.59437165  0.63333996
   0.39678379  0.74708611  0.51517963
   0.60269007  0.51766545  0.38567099
   0.71980008  0.63130531  0.55710041
   0.14682580  0.36403883  0.61984899
   0.06657196  0.54859413  0.54194687
   0.81890220  0.88472680  0.53665991
   0.82821553  0.35538514  0.45190334
   0.52729480  0.30088917  0.53317529
   0.73684428  0.49937599  0.59534746
   0.55743394  0.17243111  0.39490854
   0.80596408  0.25641257  0.38329286
   0.23744622  0.95325075  0.50791956
   0.69290454  0.77656051  0.54143907
   0.92392612  0.94982789  0.55293282
   0.52573722  0.31778112  0.39855594
   0.46736756  0.99327451  0.54632844
   0.83769365  0.09484861  0.53975400
   0.53790325  0.11641749  0.48623709
   0.35019344  0.18660873  0.43963639
   0.01176032  0.96241390  0.33524376
   0.45363938  0.58966693  0.67219036
   0.65496522  0.92539750  0.37922825
   0.07629334  0.68602626  0.43588102
   0.45139931  0.40658279  0.55182600
   0.71921944  0.70042085  0.37958300
   0.45104461  0.70687695  0.60018356
   0.75255106  0.70932458  0.47629548
   0.77859562  0.12112666  0.62070368
   0.99327462  0.30801347  0.44840298
   0.53427948  0.50806775  0.53152474
   0.81677759  0.49906173  0.42344221
   0.23593382  0.14560426  0.60548139
   0.20353331  0.83070132  0.47053363
   0.24007532  0.55895665  0.52289383
   0.06120794  0.62554295  0.62363453
   0.04607407  0.60234669  0.35417863
   0.80088590  0.97882060  0.60582364
   0.53799091  0.02769749  0.40450275
   0.60742035  0.31220641  0.60509749
   0.86154611  0.00408085  0.36920633
   0.09491131  0.14902284  0.46708233
   0.17143697  0.20410427  0.53094139
   0.64098865  0.70443872  0.45481558
   0.43678778  0.40976848  0.38641325
   0.57376393  0.05995274  0.57165030
   0.15143775  0.59340802  0.38895836
   0.26773979  0.60233753  0.39230630
   0.44025846  0.32219818  0.47032443
   0.23800967  0.15851113  0.42990119
   0.07273980  0.15038779  0.56255908
   0.84497079  0.54418570  0.59976135
   0.62117943  0.27993988  0.41090545
   0.60266699  0.89152667  0.46722346
   0.03138539  0.19528983  0.38899188
   0.60712604  0.19619077  0.54678364
   0.13279973  0.93835464  0.47948708
   0.08030596  0.28043119  0.51147220
   0.37201328  0.10676666  0.56836653
   0.06695848  0.69693024  0.53555072
   0.66648838  0.41538488  0.43001156
   0.79940332  0.72978266  0.56409459
   0.70383856  0.95720843  0.47018456
   0.59859997  0.63469894  0.55267951
   0.72284030  0.29368465  0.45166811
   0.97762036  0.31412765  0.54721611
   0.15861275  0.63017967  0.57069814
   0.63333384  0.32678308  0.50780070
   0.81962491  0.39628530  0.60550122
   0.95857820  0.02724304  0.41695300
   0.28197909  0.19512529  0.51860442
   0.24925755  0.44303289  0.46105570
   0.27270461  0.85111687  0.56928516
   0.20366815  0.68557317  0.48688872
   0.14712345  0.47606988  0.49254493
   0.22449097  0.42276493  0.55676853
   0.91141698  0.45274460  0.47371881
   0.86978818  0.70456011  0.46415352
   0.73812021  0.09283462  0.44522965
   0.22218344  0.92978119  0.40794682
   0.25200924  0.40268215  0.64925448
   0.63043412  0.88338452  0.59336892
   0.41022327  0.78906239  0.42343739
   0.91777135  0.19603829  0.50824515
   0.13254706  0.44353611  0.33227266
   0.15514768  0.30352326  0.31056042
   0.37300515  0.13090704  0.34795342
   0.03461368  0.29194967  0.63344346
   0.57268926  0.25686819  0.32009968
   0.24564937  0.77044633  0.65001605
   0.20737430  0.64840505  0.31036906
   0.27537441  0.39219130  0.36737583
   0.36535081  0.59758663  0.34222079
   0.22638085  0.05618082  0.35811888
   0.24120334  0.19607823  0.32934297
   0.50127293  0.89230162  0.45484168
   0.54994210  0.82779352  0.53430795
   0.54465289  0.64624530  0.63332258
   0.47796725  0.12417199  0.59656863
   0.26265875  0.69538553  0.56827752
   0.44188972  0.84921012  0.58086626
   0.76552337  0.61691251  0.64950454
   0.84487360  0.83172121  0.62294711
   0.64019295  0.73966915  0.62095806
   0.00815922  0.03349666  0.60297176
   0.28382782  0.00383347  0.59333590
   0.50258756  0.97322429  0.62853881
   0.55216419  0.44617537  0.71854035
   0.42821749  0.45173005  0.72280353
   0.08322528  0.60642030  0.40641308
   0.40902002  0.76717813  0.57433795
   0.84176382  0.44145312  0.46783897
   0.01708949  0.99048204  0.39361135
   0.01470021  0.28419027  0.39108141
   0.00922849  0.11515473  0.57252097
   0.60956457  0.65781354  0.61057017
   0.21399010  0.47606096  0.50976145
   0.91506213  0.75556094  0.49625454
   0.52057854  0.11045563  0.42598659
   0.41810042  0.17125499  0.58953179
   0.08345253  0.13917208  0.40698087
   0.70189793  0.04484625  0.48732303
   0.66505935  0.89803746  0.43747644
   0.65009874  0.50402706  0.43015089
   0.19846065  0.91248223  0.46399069
   0.21441007  0.36679390  0.60365368
   0.67368681  0.81383315  0.59459820
   0.21692719  0.64194105  0.53864235
   0.36878912  0.73512773  0.45920930
   0.79753549  0.88859680  0.59568866
   0.87984331  0.91228608  0.51201739
   0.57661494  0.57475629  0.51198053
   0.58983184  0.11575908  0.52521821
   0.85812234  0.15211323  0.49517595
   0.83546892  0.60354735  0.64593808
   0.13373852  0.36031890  0.35687228
   0.79065529  0.27993925  0.44187265
   0.39917610  0.17749484  0.39600320
   0.85602280  0.75005517  0.59659126
   0.28295667  0.93575647  0.54978794
   0.02307473  0.33044751  0.50224551
   0.57455938  0.69549008  0.43556436
   0.23024095  0.75260050  0.45196954
   0.59359829  0.28475304  0.54844104
   0.97521631  0.27237805  0.60269220
   0.88890636  0.02540900  0.42420019
   0.10469147  0.19551436  0.51774948
   0.04814566  0.73303709  0.48263019
   0.23194366  0.20604263  0.56107558
   0.56140781  0.25778527  0.38122611
   0.47648668  0.62838330  0.61988604
   0.28146605  0.77123802  0.59778488
   0.20850083  0.64339984  0.37179454
   0.74043017  0.71095021  0.53589427
   0.98660652  0.99069684  0.55037369
   0.70310456  0.73681815  0.43426040
   0.78792052  0.05947343  0.57681602
   0.45631390  0.32845159  0.40928789
   0.44872026  0.93806504  0.59422862
   0.50794348  0.04298279  0.58644114
   0.24424715  0.37040632  0.42094710
   0.65852534  0.33000211  0.45034791
   0.45989801  0.31963964  0.52909150
   0.33729937  0.58994254  0.39908301
   0.80322723  0.47645955  0.57979690
   0.06920979  0.89885916  0.48050551
   0.21190758  0.14445432  0.37359659
   0.07823286  0.49398500  0.49468762
   0.55757019  0.85234010  0.47473025
   0.71834366  0.58482092  0.60963333
   0.28664212  0.21010174  0.45911077
   0.08839684  0.62558162  0.56767118
   0.35285205  0.02123754  0.57814635
   0.48473795  0.48314772  0.57113256
   0.48498698  0.49683764  0.69569957

 position of ions in cartesian coordinates  (Angst):
  12.21273399 10.01048617 20.43392972
  13.14352995  8.79676902 20.61249115
  12.92574042 11.35362376 20.25685769
  12.80754367  7.85442126 21.76049596
  17.81352652  1.88281440 17.50513448
  21.68887124  5.04982631  9.57948250
  18.57310935  3.75615001 10.03976840
  22.81522226 17.09935504  8.74523415
  14.64921175 17.45931981 10.08747787
  19.20986618 18.03075152  9.91976410
  17.55830880  2.55833369 12.31360861
  21.43061944  4.52012955 13.69924352
  13.66032332  5.51363182  8.22435231
  20.87012470  6.06838805 16.55499910
  13.86752359  6.50618486 16.57765576
  13.89289814 15.78132703 15.53839021
   0.79212230  6.11565944 17.54084339
  21.89589338  7.60211669 12.20777585
  17.46806539  9.60990927 11.35790489
  18.70473840  6.94198222 17.08425409
  13.83846347 10.30523625 10.16284657
  16.81946503 11.70510107 10.30871170
  19.69247867  9.82944088 11.28015755
   0.11154425 10.94156933  9.61828518
  19.39294954 12.90878407 12.57986315
  20.47041049 10.83224456 19.42921406
  12.17364643 17.85965258 11.33679820
   5.22293275 17.76161802 10.57067472
   5.06558822  4.31016263  8.58198589
   3.68730349  5.97649684  7.50000000
   7.99605455  2.81940544  8.89228530
   5.21406665  0.82920834  8.67629559
  11.96269103 14.99275484 14.69975636
   8.69905763  4.30835946 17.41751929
   5.69600863  1.69305522 16.09860641
   7.38347683  8.82751530 11.89413327
   9.57419369  7.95041833 10.90632902
   9.32938927 14.37219961 10.45189795
   5.71709332 11.87720376  7.91249741
   7.29826932  7.58329756  9.92688859
   9.49267817 10.58787005  9.10861924
   3.26254231  8.84268608  9.46104865
  13.88920341 12.64839014  9.47364424
  10.98005707 15.61013129 11.93160111
   2.85564493  5.84766571 16.45216581
   1.71344687 12.04037789 17.36783033
   5.66133245  7.02639826 18.35282774
   5.77837800 14.76619215 18.01467757
  11.43536262 10.07221886 21.21104881
  14.20654755  9.08965934 20.62685708
  13.38324228 11.66813185 21.21105248
  13.72773080 11.28443755 19.50907608
  12.22634484 12.13817647 19.93661212
  13.01962491  8.34973213 22.72135032
  11.74114749  7.58295254 21.72749356
  13.40794927  6.93546563 21.69253429
   8.63740362 11.74899635 11.80179838
   8.11940335  9.13371715 11.30144811
  20.15172274 10.24712242 18.72575957
   8.16060998 17.39775971 14.26162222
   0.78317855 16.90034272 14.20639519
  14.89790566  1.42919560 13.15609244
   1.60709516  0.94711409 10.62190669
  10.57955332  2.34782959 11.30707087
  18.86679123  3.87160553 12.98914499
  22.78164736  3.29106721 16.09687331
   6.43261122  5.42138249 12.05751853
  13.02497128 14.04561295 11.87575437
   9.15446240 17.66180070 16.65498807
   4.15590840  6.34186120 10.89510594
  20.28543819 12.39614134 17.13369114
  20.26706433 17.52644236 12.55556607
   7.04790320 13.78911669 12.31057251
   9.87045805  4.73421333 10.20482654
  18.99192362  8.43065032 13.98308071
  23.02723942  1.31968386 14.01237829
  11.87990296  8.44665280 16.88766286
   0.80854198 16.67059137 11.54385891
  22.54593219  5.49427402  9.44298747
   1.63005096  6.09065222 10.11814055
   4.87647100 13.20393591 10.62861051
   0.91072893  7.59464512 13.41772355
   5.61567744  5.18575447 15.80185521
   9.30135890  3.55104145 17.34778428
  10.62869074 10.26381207 15.53624967
  21.29856522 13.57428693 14.98577105
  20.34739459  1.95787901 11.88993046
  13.40476402 12.09287863 10.11168720
   3.33439013  2.88355087 10.10739962
   8.20841543 13.88344904 16.30642390
  21.32759690 15.31330728 12.98949491
   1.43600223  9.72877939 11.88926245
  16.58313365 10.06030463 11.28987623
   1.76725442 14.80154966 12.98450890
  16.39878711 14.99633320 11.63069310
  17.09551851  0.88843903 14.59700765
  21.51357050  5.47778768 16.98846623
  17.20855807 15.46236293 16.47685024
  14.63491423  9.55703168 13.07549710
  13.03010146 11.41099800 12.56123752
   9.95506633  4.51078526 14.94621766
  22.90303759 13.19667544 12.81787194
  15.31050759 10.77074946 17.02631039
   9.28922213 13.53812433 13.84976286
  14.10975474  9.38073831 10.36813464
  16.85145179 11.44003312 14.97673458
   3.43738208  6.59683383 16.66362767
   1.55853569  9.94120430 14.56935621
  19.17156059 16.03234397 14.42722500
  19.38959778  6.44001838 12.14868300
  12.34465387  5.45248404 14.33354676
  17.25047843  9.04931061 16.00494392
  13.05025010  3.12466491 10.61647095
  18.86866258  4.64651295 10.30420244
   5.55892333 17.27408272 13.65458756
  16.22179222 14.07223706 14.55570491
  21.63030656 17.21205631 14.86469554
  12.30818899  5.75858697 10.71452528
  10.94167970 17.99936277 14.68714774
  19.61149278  1.71877417 14.51040455
  12.59301152  2.10962891 13.07168996
   8.19848185  3.38158106 11.81890631
   0.27532438 17.44013033  9.01248080
  10.62028515 10.68549416 18.07073971
  15.33358375 16.76934745 10.19493214
   1.78612593 12.43164437 11.71794928
  10.56784232  7.36778303 14.83494070
  16.83785811 12.69249221 10.20446890
  10.55953834 12.80948479 16.13495457
  17.61819454 12.85383871 12.80442605
  18.22793152  2.19496498 16.68660460
  23.25384464  5.58158514 12.05458163
  12.50817419  9.20681609 14.28917441
  19.12182067  9.04361594 11.38355200
   5.52351609  2.63852927 16.27737799
   4.76497818 15.05333538 12.64952801
   5.62047403 10.12898590 14.05714640
   1.43295705 11.33561199 16.76539556
   1.07865368 10.91526714  9.52151395
  18.74977582 17.73744002 16.28657896
  12.59506368  0.50191281 10.87439573
  14.22049668  5.65756624 16.26705747
  20.16990973  0.07395004  9.92550906
   2.22199659  2.70047811 12.55674536
   4.01356150  3.69862175 14.27349209
  15.00637423 12.76530097 12.22697399
  10.22576747  7.42551174 10.38808912
  13.43255645  1.08641788 15.36788452
   3.54535369 10.75328740 10.45651017
   6.26813510 10.91510113 10.54651395
  10.30702051  5.83862961 12.64390410
   5.57211440  2.87241773 11.55719116
   1.70293292  2.72521284 15.12348189
  19.78186003  9.86131796 16.12360431
  14.54261460  5.07285684 11.04652184
  14.10921452 16.15556596 12.56053950
   0.73477264  3.53889327 10.45741115
  14.21360655  3.55521952 14.69938492
   3.10901352 17.00414686 12.89022683
   1.88006637  5.08176011 13.75009465
   8.70931238  1.93474398 15.27960586
   1.56758481 12.62923804 14.39740620
  15.60335582  7.52728779 11.56015827
  18.71506655 13.22456450 15.16476162
  16.47777184 17.34580083 12.64014391
  14.01400023 11.50152983 14.85788591
  16.92262721  5.32192921 12.14235921
  22.88735827  5.69238167 14.71101132
   3.71332982 11.41963519 15.34228730
  14.82716522  5.92171361 13.65139239
  19.18848015  7.18117979 16.27791118
  22.44155659  0.49367766 11.20910044
   6.60149557  3.53591158 13.94183280
   5.83544193  8.02830396 12.39472924
   6.38436785 15.42329044 15.30430161
   4.76813504 12.42343385 13.08920785
   3.44435051  8.62697504 13.24126574
   5.25562416  7.66102345 14.96781236
  21.33745138  8.20429214 12.73515651
  20.36286723 12.76750071 12.47800922
  17.28034963  1.68227812 11.96927179
   5.20160189 16.84878525 10.96698378
   5.89986245  7.29709869 17.45414609
  14.75927900 16.00802013 15.95175425
   9.60385771 14.29878658 11.38342242
  21.48621551  3.55245637 13.66334053
   3.10309823  8.03742302  8.93260776
   3.63220806  5.50021683  8.34890949
   8.73253334  2.37219755  9.35415932
   0.81035116  5.29048919 17.02909268
  13.40739700  4.65476936  8.60535697
   5.75096976 13.96144049 17.47461963
   4.85490080 11.74990155  8.34376522
   6.44687148  7.10699146  9.87629901
   8.55333550 10.82900896  9.20004704
   5.29986878  1.01806603  9.62744117
   5.64688233  3.55318002  8.85384768
  11.73544815 16.16960912 12.22767567
  12.87485661 15.00064248 14.36399641
  12.75102925 11.71076412 17.02584308
  11.18983201  2.25015000 16.03777299
   6.14918138 12.60124593 15.27721296
  10.34521039 15.38873787 15.61564056
  17.92189306 11.17921779 17.46086855
  19.77958472 15.07181717 16.74691535
  14.98774581 13.40372002 16.69344310
   0.19101796  0.60700099 16.20991092
   6.64477665  0.06946730 15.95086643
  11.76622548 17.63602790 16.89723912
  12.92687857  8.08524957 19.31678345
  10.02512586  8.18590720 19.43139224
   1.94841153 10.98908596 10.92575188
   9.57568826 13.90221665 15.44013753
  19.70678075  7.99967650 12.57708649
   0.40008717 17.94875972 10.58159830
   0.34415087  5.14987929 10.51358498
   0.21605085  2.08674610 15.39129099
  14.27069575 11.92039499 16.41418172
   5.00978518  8.62681341 13.70410379
  21.42278905 13.69169878 13.34099278
  12.18741762  2.00159257 11.45195358
   9.78827205  3.10335224 15.84859916
   1.95373172  2.52197018 10.94101594
  16.43233932  0.81266960 13.10088356
  15.56990048 16.27354967 11.76083937
  15.21965321  9.13359373 11.56390395
   4.64622069 16.53530673 12.47363180
   5.01961726  6.64675919 16.22824307
  15.77188030 14.74766328 15.98480121
   5.07854624 11.63276596 14.48051960
   8.63383069 13.32142384 12.34509184
  18.67133820 16.10247325 16.01411665
  20.59827081 16.53175221 13.76475120
  13.49930216 10.41529493 13.76376019
  13.80872700  2.09769765 14.11963369
  20.08975493  2.75647993 13.31199648
  19.55940912 10.93702452 17.36499022
   3.13099191  6.52942423  9.59392828
  18.51026388  5.07284540 11.87902451
   9.34522920  3.21642612 10.64589911
  20.04060187 13.59192751 16.03838147
   6.62438190 16.95706470 14.78015061
   0.54020936  5.98811771 13.50205012
  13.45117902 12.60314055 11.70943634
   5.39023881 13.63805193 12.15046292
  13.89690455  5.16007734 14.74394136
  22.83107627  4.93582725 16.20239526
  20.81044864  0.46044249 11.40392910
   2.45096288  3.54296210 13.91884897
   1.12715225 13.28353886 12.97472440
   5.43010139  3.73374728 15.08360047
  13.14328356  4.67138795 10.24864117
  11.15517013 11.38708265 16.66462369
   6.58948465 13.97578697 16.07046990
   4.88127424 11.65920104  9.99508876
  17.33442892 12.88329723 14.40664218
  23.09773589 17.95265219 14.79589762
  16.46058793 13.35205634 11.67438144
  18.44623945  1.07773212 15.50675640
  10.68289909  5.95194918 11.00303640
  10.50512223 16.99889891 15.97486578
  11.89161443  0.77890129 15.76551202
   5.71814202  6.71222076 11.31647527
  15.41693082  5.98004644 12.10686792
  10.76680774  5.79226573 14.22376066
   7.89661487 10.69048859 10.72869482
  18.80458923  8.63403649 15.58689245
   1.62029077 16.28843975 12.91760565
   4.96103076  2.61769098 10.04353415
   1.83153245  8.95161915 13.29886860
  13.05343995 15.44545689 12.76234739
  16.81735506 10.59767851 16.38899620
   6.71066321  3.80730339 12.34244318
   2.06948455 11.33631268 15.26091247
   8.26072320  0.38485046 15.54252018
  11.34834302  8.75523431 15.35396594
  11.35417311  9.00331258 18.70274655



--------------------------------------------------------------------------------------------------------


 k-point  1 :   0.0000 0.0000 0.0000  plane waves:  289505
 k-point  2 :   0.3333 0.0000 0.0000  plane waves:  289422
 k-point  3 :   0.0000 0.3333 0.0000  plane waves:  289550
 k-point  4 :   0.3333 0.3333 0.0000  plane waves:  289551
 k-point  5 :  -0.3333 0.3333 0.0000  plane waves:  289551

 maximum and minimum number of plane-waves per node :     72451    72309

 maximum number of plane-waves:    289551
 maximum index in each direction: 
   IXMAX=   43   IYMAX=   33   IZMAX=   49
   IXMIN=  -43   IYMIN=  -33   IZMIN=  -49


 real space projection operators:
  total allocation   :      13831.43 KBytes
  max/ min on nodes  :       3459.36       3456.41


 parallel 3D FFT for wavefunctions:
    minimum data exchange during FFTs selected (reduces bandwidth)
 parallel 3D FFT for charge:
    minimum data exchange during FFTs selected (reduces bandwidth)


 total amount of memory used by VASP MPI-rank0   703408. kBytes
=======================================================================

   base      :      30000. kBytes
   nonlr-proj:      17057. kBytes
   fftplans  :      30982. kBytes
   grid      :      57864. kBytes
   one-center:       1088. kBytes
   wavefun   :     566417. kBytes

     INWAV:  cpu time    0.0001: real time    0.0001
 Broyden mixing: mesh for mixing (old mesh)
   NGX = 85   NGY = 67   NGZ = 99
  (NGX  =256   NGY  =200   NGZ  =300)
  gives a total of 563805 points

 initial charge density was supplied:
 charge density of overlapping atoms calculated
 number of electron    1264.0000000 magnetization 
 keeping initial charge density in first step


--------------------------------------------------------------------------------------------------------


 Maximum index for non-local projection operator          667
 Maximum index for augmentation-charges          492 (set IRDMAX)


--------------------------------------------------------------------------------------------------------


 First call to EWALD:  gamma=   0.079
 Maximum number of real-space cells 3x 3x 2
 Maximum number of reciprocal cells 3x 2x 3

    FEWALD:  cpu time    0.0293: real time    0.0294


--------------------------------------- Iteration      1(   1)  ---------------------------------------


    POTLOK:  cpu time    0.2786: real time    0.2863
    SETDIJ:  cpu time    0.5755: real time    0.5771
     EDDAV:  cpu time   83.5820: real time   83.8784
       DOS:  cpu time    0.0019: real time    0.0019
    --------------------------------------------
      LOOP:  cpu time   84.4382: real time   84.7438

 eigenvalue-minimisations  :  8728
 total energy-change (2. order) : 0.1306555E+05  (-0.5046076E+05)
 number of electron    1264.0000000 magnetization 
 augmentation part     1264.0000000 magnetization 

 DIPCOR: dipole corrections for dipol
 direction  3 min pos    78,
 dipolmoment           0.000000      0.000000      8.290475 electrons x Angstroem
 Tr[quadrupol]    -96555.686057

 energy correction for charged system         0.000000 eV
 dipol+quadrupol energy correction           -0.558825 eV
 added-field ion interaction       1151.389761 eV  (added to PSCEN)


 Free energy of the ion-electron system (eV)
  ---------------------------------------------------
  alpha Z        PSCENC =      1645.89838751
  Ewald energy   TEWEN  =    308938.86342046
  -Hartree energ DENC   =   -371545.12920284
  -exchange      EXHF   =         0.00000000
  -V(xc)+E(xc)   XCENC  =      3806.28594672
  PAW double counting   =     60302.38778424   -59321.72876092
  entropy T*S    EENTRO =        -1.63265048
  eigenvalues    EBANDS =     -5898.93736071
  atomic energy  EATOM  =     75139.53829012
  Solvation  Ediel_sol  =         0.00000000
  ---------------------------------------------------
  free energy    TOTEN  =     13065.54585410 eV

  energy without entropy =    13067.17850458  energy(sigma->0) =    13066.36217934


--------------------------------------------------------------------------------------------------------




--------------------------------------- Iteration      1(   2)  ---------------------------------------


     EDDAV:  cpu time   99.2603: real time   99.6037
       DOS:  cpu time    0.0012: real time    0.0012
    --------------------------------------------
      LOOP:  cpu time   99.2615: real time   99.6049

 eigenvalue-minimisations  : 10720
 total energy-change (2. order) :-0.1248006E+05  (-0.1208314E+05)
 number of electron    1264.0000000 magnetization 
 augmentation part     1264.0000000 magnetization 

 DIPCOR: dipole corrections for dipol
 direction  3 min pos    78,
 dipolmoment           0.000000      0.000000      8.290475 electrons x Angstroem
 Tr[quadrupol]    -96555.686057

 energy correction for charged system         0.000000 eV
 dipol+quadrupol energy correction           -0.558825 eV
 added-field ion interaction       1151.389761 eV  (added to PSCEN)


 Free energy of the ion-electron system (eV)
  ---------------------------------------------------
  alpha Z        PSCENC =      1645.89838751
  Ewald energy   TEWEN  =    308938.86342046
  -Hartree energ DENC   =   -371545.12920284
  -exchange      EXHF   =         0.00000000
  -V(xc)+E(xc)   XCENC  =      3806.28594672
  PAW double counting   =     60302.38778424   -59321.72876092
  entropy T*S    EENTRO =        -0.00000000
  eigenvalues    EBANDS =    -18380.63346317
  atomic energy  EATOM  =     75139.53829012
  Solvation  Ediel_sol  =         0.00000000
  ---------------------------------------------------
  free energy    TOTEN  =       585.48240212 eV

  energy without entropy =      585.48240212  energy(sigma->0) =      585.48240212


--------------------------------------------------------------------------------------------------------




--------------------------------------- Iteration      1(   3)  ---------------------------------------


     EDDAV:  cpu time   86.7251: real time   87.0355
       DOS:  cpu time    0.0012: real time    0.0012
    --------------------------------------------
      LOOP:  cpu time   86.7263: real time   87.0367

 eigenvalue-minimisations  :  9064
 total energy-change (2. order) :-0.2609026E+04  (-0.2597488E+04)
 number of electron    1264.0000000 magnetization 
 augmentation part     1264.0000000 magnetization 

 DIPCOR: dipole corrections for dipol
 direction  3 min pos    78,
 dipolmoment           0.000000      0.000000      8.290475 electrons x Angstroem
 Tr[quadrupol]    -96555.686057

 energy correction for charged system         0.000000 eV
 dipol+quadrupol energy correction           -0.558825 eV
 added-field ion interaction       1151.389761 eV  (added to PSCEN)


 Free energy of the ion-electron system (eV)
  ---------------------------------------------------
  alpha Z        PSCENC =      1645.89838751
  Ewald energy   TEWEN  =    308938.86342046
  -Hartree energ DENC   =   -371545.12920284
  -exchange      EXHF   =         0.00000000
  -V(xc)+E(xc)   XCENC  =      3806.28594672
  PAW double counting   =     60302.38778424   -59321.72876092
  entropy T*S    EENTRO =        -0.00000000
[...]
     23.02709      1.31929     14.01240        -0.006734      0.004134     -0.000073
     11.88191      8.44569     16.88824         0.002447      0.007571     -0.004290
      0.80854     16.67059     11.54386        -0.117664      0.454052     -0.328402
     22.54593      5.49427      9.44299         0.178419     -0.186554      0.391790
      1.63005      6.09065     10.11814         0.298347     -0.128857     -0.048660
      4.87647     13.20394     10.62861         0.418481     -0.173052      0.392472
      0.91073      7.59465     13.41772         0.444044      0.060195      0.170482
      5.61513      5.18578     15.80169         0.007906      0.007279     -0.002716
      9.30231      3.55067     17.34815        -0.002362      0.001984      0.005217
     10.62987     10.26347     15.53643         0.014747     -0.006190      0.000827
     21.29875     13.57442     14.98624        -0.014254      0.001507      0.011110
     20.34739      1.95788     11.88993        -0.078807     -0.051069      0.411254
     13.40476     12.09288     10.11169        -0.262427      0.191683      0.064608
      3.33439      2.88355     10.10740        -0.022582     -0.060383      0.171113
      8.20830     13.88382     16.30747         0.000377      0.000258      0.007660
     21.32760     15.31331     12.98949         0.322422     -1.478842      0.187135
      1.43600      9.72878     11.88926         0.535938      0.277489      0.032669
     16.58313     10.06030     11.28988        -0.107920     -0.548763     -0.058665
      1.76725     14.80155     12.98451        -0.030600     -6.346564      0.294746
     16.39879     14.99633     11.63069         1.816123     -3.811973     -0.225767
     17.09489      0.88838     14.59700        -0.007693     -0.000100      0.000012
     21.51382      5.47782     16.98832         0.002231     -0.003771      0.006371
     17.20868     15.46228     16.47680        -0.004308      0.000564      0.003365
     14.63491      9.55703     13.07550         1.967410     -1.232309     -1.275733
     13.03010     11.41100     12.56124        -3.566239     -2.742800      1.674583
      9.95503      4.51023     14.94602        -0.000050     -0.008308      0.003248
     22.90304     13.19668     12.81787         0.430146      0.292804      0.237863
     15.31020     10.77110     17.02707        -0.002297     -0.007876      0.000417
      9.28891     13.53830     13.84954        -0.002289      0.005923     -0.010896
     14.10975      9.38074     10.36813         0.270717     -0.117373      0.339523
     16.85020     11.44035     14.97711         0.001153     -0.004140     -0.003934
      3.43734      6.59682     16.66385         0.005792      0.010315      0.008677
      1.55862      9.94138     14.56915         0.003157      0.002233      0.001692
     19.17178     16.03228     14.42687         0.007233     -0.004769     -0.002068
     19.38960      6.44002     12.14868        -0.134417      0.238277      0.176952
     12.34472      5.45140     14.33126         0.010263     -0.011044     -0.007888
     17.24983      9.04900     16.00483        -0.002646     -0.005478     -0.001475
     13.05025      3.12466     10.61647        -1.373987     -1.814299      0.497780
     18.86866      4.64651     10.30420        -0.038701     -0.031116      0.729216
      5.55892     17.27408     13.65459        -0.852617      0.201101     -1.018537
     16.22179     14.07186     14.55558         0.005777     -0.005269     -0.005257
     21.63021     17.21174     14.86401         0.006968     -0.006371      0.005349
     12.30819      5.75859     10.71453        -7.866059      6.648077      3.164523
     10.94161     17.99884     14.68582         0.003368     -0.004931      0.004582
     19.61136      1.71861     14.51044        -0.003695     -0.000996      0.000840
     12.59301      2.10963     13.07169        -2.121009      0.572751     -1.130931
      8.19848      3.38158     11.81891        -0.105660      0.156814      0.012353
      0.27532     17.44013      9.01248        -0.253999      0.109834      0.297661
     10.62129     10.68501     18.07123         0.010534     -0.003514     -0.000750
     15.33358     16.76935     10.19493        -0.567758      0.128305      0.600325
      1.78613     12.43164     11.71795         0.017530     -0.145241      0.061194
     10.56836      7.36731     14.83485         0.010463     -0.006997     -0.006106
     16.83786     12.69249     10.20447        -0.046491      0.276903      0.463774
     10.56104     12.80954     16.13500         0.005262     -0.000408      0.005674
     17.61819     12.85384     12.80443        -0.385479      0.248942     -1.074696
     18.22778      2.19498     16.68662        -0.015232      0.002597      0.018428
     23.25384      5.58159     12.05458         0.241383      0.001497     -0.064114
     12.50799      9.20609     14.28812        -0.001204     -0.011683     -0.000667
     19.12182      9.04362     11.38355         0.337393     -0.386342      0.416352
      5.52342      2.63869     16.27765        -0.001638      0.004985      0.002944
      4.76498     15.05334     12.64953         0.596643     -6.683415      0.312488
      5.62026     10.12925     14.05627        -0.001873     -0.000916     -0.007047
      1.43376     11.33522     16.76538         0.004834      0.000473     -0.002810
      1.07865     10.91527      9.52151         0.177113      0.219739      0.410836
     18.74978     17.73753     16.28654        -0.008086     -0.011152     -0.001303
     12.59506      0.50191     10.87440        -0.220771      0.372288      0.143438
     14.21901      5.65623     16.26795        -0.009572     -0.005062     -0.003911
     20.16991      0.07395      9.92551        -0.073907      0.002045      0.271645
      2.22200      2.70048     12.55675        -0.038458     -0.058353     -0.814100
      4.01354      3.69837     14.27313         0.016718     -0.008204      0.009571
     15.00637     12.76530     12.22697         2.659496      0.222497     -0.650324
     10.22577      7.42551     10.38809         0.255321     -0.696492      0.494433
     13.43310      1.08602     15.36765         0.004338     -0.000018     -0.008066
      3.54535     10.75329     10.45651         0.003245      0.700043      0.059094
      6.26814     10.91510     10.54651         0.148634      0.311227      0.017462
     10.30702      5.83863     12.64390         0.387025      0.067150     -0.781662
      5.57211      2.87242     11.55719         0.313423      0.273303     -0.397214
      1.70303      2.72474     15.12316        -0.002871     -0.003050     -0.000608
     19.78158      9.86130     16.12368        -0.000554     -0.003739      0.000526
     14.54261      5.07286     11.04652         1.369963      0.639749      0.800973
     14.10921     16.15557     12.56054        23.543272     14.639366     -4.531145
      0.73477      3.53889     10.45741         0.412759      0.157415      0.251701
     14.21423      3.55498     14.69841         0.007631      0.005895      0.004797
      3.10901     17.00415     12.89023         0.019690     -0.149864     -0.348561
      1.87987      5.08175     13.74992         0.004555      0.002162     -0.007525
      8.70892      1.93460     15.27930         0.005111      0.003586      0.008664
      1.56781     12.62894     14.39754        -0.001018     -0.000156      0.007709
     15.60336      7.52729     11.56016        -0.319500      0.207327      0.423374
     18.71529     13.22449     15.16461        -0.004621     -0.009875     -0.003549
     16.47777     17.34580     12.64014        -0.781980      0.354133     -0.230627
     14.01334     11.50086     14.85843        -0.007593     -0.005860      0.002885
     16.92263      5.32193     12.14236         0.259932      0.046912     -0.042078
     22.88710      5.69261     14.71080        -0.002899      0.004232      0.007579
      3.71293     11.41889     15.34254        -0.002641     -0.000683      0.001179
     14.82717      5.92171     13.65139         0.381779      0.276068     -0.810518
     19.18798      7.18143     16.27800        -0.002848     -0.005584     -0.018738
     22.44156      0.49368     11.20910        -0.289665     -0.374642     -0.347776
      6.60196      3.53581     13.94200        -0.003801      0.001199     -0.001612
      5.83544      8.02830     12.39473        -0.037138     -0.702634     -0.625683
      6.38305     15.42321     15.30549        -0.010691     -0.004132     -0.000355
      4.76814     12.42343     13.08921         0.254041      0.548144     -0.409213
      3.44435      8.62698     13.24127        -0.293465      0.091562      0.170078
      5.25585      7.66107     14.96679         0.004726     -0.022878      0.021098
     21.33745      8.20429     12.73516        -0.245753     -0.143236     -0.150676
     20.36287     12.76750     12.47801         0.321548      0.273624      0.418246
     17.28035      1.68228     11.96927        -0.171048     -0.268235      0.464888
      5.20160     16.84879     10.96698        -0.326885      0.374207      0.335841
      5.89984      7.29707     17.45386         0.003704     -0.000739      0.013251
     14.75951     16.00776     15.95156        -0.008912      0.012243      0.012388
      9.60386     14.29879     11.38342        -0.512001     -0.394932      0.260413
     21.48622      3.55246     13.66334        -0.763472     -0.031620     -0.128006
      3.10310      8.03742      8.93261         0.096190     -0.236859      0.301094
      3.63221      5.50022      8.34891        -0.160153      0.571553      0.361096
      8.73253      2.37220      9.35416         0.185235      0.597842      0.316693
      0.81001      5.29046     17.02898        -0.001856      0.008377      0.000106
     13.40740      4.65477      8.60536        -0.200782      0.166154      0.199814
      5.75009     13.96094     17.47524        -0.000652     -0.002978      0.009620
      4.85490     11.74990      8.34377         0.090656     -0.127609      0.525063
      6.44687      7.10699      9.87630         0.026913      0.047651      0.678248
      8.55334     10.82901      9.20005        -0.076779     -0.024150      0.718179
      5.29987      1.01807      9.62744        -0.069739      0.787491      0.095504
      5.64688      3.55318      8.85385        -0.373547     -0.055858      0.436007
     11.73545     16.16961     12.22768        -2.221273      1.048463     -0.703354
     12.87506     15.00037     14.36467         0.003519     -0.000787     -0.001111
     12.75051     11.71143     17.02600         0.004799      0.006728      0.000274
     11.19048      2.24929     16.03844         0.013812     -0.016208      0.007260
      6.14897     12.60036     15.27754        -0.000572      0.004367      0.005862
     10.34531     15.38911     15.61609         0.002563      0.009175      0.001170
     17.92178     11.17911     17.46022        -0.002703      0.001633      0.003996
     19.77959     15.07197     16.74727         0.003082     -0.000521     -0.002371
     14.98656     13.40361     16.69372        -0.003615     -0.002290     -0.001355
      0.19079      0.60727     16.21010        -0.002933      0.001868      0.005340
      6.64489      0.06939     15.95027         0.010577      0.001070     -0.003433
     11.76666     17.63513     16.89682        -0.007900     -0.012040     -0.020701
     12.92703      8.08352     19.31844        -0.007298     -0.007925      0.010648
     10.02558      8.18358     19.43087        -0.009579     -0.021969     -0.005646
      1.94841     10.98909     10.92575        -0.064684     -0.136248      0.105489
      9.57610     13.90195     15.43995        -0.007822     -0.005568      0.003612
     19.70678      7.99968     12.57709         0.133027     -0.172021     -0.265342
      0.40009     17.94876     10.58160         0.099993     -0.143623      0.372406
      0.34415      5.14988     10.51358         0.041637      0.036589      0.130160
      0.21591      2.08648     15.39147         0.005118     -0.001112      0.003217
     14.27005     11.92030     16.41462        -0.008931     -0.000537     -0.003074
      5.00997      8.62676     13.70457         0.002220      0.008644     -0.013338
     21.42279     13.69170     13.34099         0.193390      0.237130     -0.610019
     12.18742      2.00159     11.45195         0.169789     -0.072093      0.546612
      9.78771      3.10264     15.84882        -0.009980     -0.000868      0.000985
      1.95373      2.52197     10.94102         0.073094     -0.113185      0.121562
     16.43234      0.81267     13.10088         0.094934     -0.076236     -0.275295
     15.56990     16.27355     11.76084        -0.462799      4.548554     -0.170922
     15.21965      9.13359     11.56390         0.074987      0.040755      0.296985
      4.64622     16.53531     12.47363        -0.705484      6.177662     -0.291078
      5.01930      6.64629     16.22830        -0.004565      0.001235     -0.011118
     15.77199     14.74723     15.98533         0.000287     -0.001750      0.011230
      5.07824     11.63283     14.47994         0.002686     -0.003409     -0.003881
      8.63383     13.32142     12.34509        -0.346349      0.011083     -0.019705
     18.67140     16.10278     16.01439         0.003222      0.002893      0.004519
     20.59792     16.53171     13.76477        -0.000255      0.004603     -0.002903
     13.49853     10.41507     13.76391        -0.007194      0.007241     -0.003421
     13.80894      2.09835     14.11926        -0.003972     -0.009539     -0.006855
     20.08975      2.75648     13.31200        -0.182031     -0.006355     -0.394589
     19.55942     10.93690     17.36504        -0.001021      0.000901      0.000153
      3.13099      6.52942      9.59393        -0.091170     -0.128689      0.104258
     18.51026      5.07285     11.87902        -0.281606      0.108457      0.129990
      9.34523      3.21643     10.64590        -0.131736     -0.304033      0.287093
     20.04085     13.59200     16.03819         0.007085     -0.001338      0.000545
      6.62367     16.95704     14.78033        -0.012832     -0.007557      0.000550
      0.54021      5.98812     13.50205         0.320865      0.200496     -0.395560
     13.45118     12.60314     11.70944         3.907814     -0.885716     -2.412992
      5.39024     13.63805     12.15046         0.127865     -0.596672      0.059344
     13.89706      5.16021     14.74400        -0.006087     -0.006129     -0.006858
     22.83114      4.93600     16.20197        -0.000456      0.006497     -0.001793
     20.81045      0.46044     11.40393         0.015592      0.044985      0.172366
      2.45129      3.54324     13.91905        -0.001520      0.000424      0.002869
      1.12715     13.28354     12.97472        -0.120980     -0.565625     -0.228234
      5.43071      3.73376     15.08347        -0.003915      0.001887     -0.002250
     13.14328      4.67139     10.24864         8.360227     -5.351317     -3.516576
     11.15511     11.38639     16.66485        -0.003571     -0.013971      0.012882
      6.58953     13.97550     16.07088        -0.003917     -0.000061      0.007836
      4.88127     11.65920      9.99509         0.068768     -0.060222      0.075508
     17.33430     12.88289     14.40645         0.004537     -0.004307     -0.006840
     23.09783     17.95254     14.79593        -0.001519     -0.003626     -0.002681
     16.46059     13.35206     11.67438        -0.690618     -1.363564      0.404319
     18.44593      1.07790     15.50689         0.001682      0.000479     -0.004004
     10.68290      5.95195     11.00304        -1.156019      0.542337      0.534848
     10.50521     16.99853     15.97396         0.010752      0.002462     -0.004969
     11.89229      0.77833     15.76499        -0.001795     -0.011400     -0.003104
      5.71814      6.71222     11.31648         0.022527     -0.111586     -0.045184
     15.41693      5.98005     12.10687        -0.170779     -0.464911     -0.728986
     10.76752      5.79151     14.22354         0.001560     -0.001226     -0.003981
      7.89661     10.69049     10.72869        -0.131211     -0.074427      0.002857
     18.80426      8.63421     15.58654        -0.005086     -0.003070      0.003095
      1.62029     16.28844     12.91761        -0.315025      6.427988     -0.524644
      4.96103      2.61769     10.04353        -0.075852     -0.030975      0.120524
      1.83153      8.95162     13.29887         0.057075     -0.141682     -0.277252
     13.05344     15.44546     12.76235       -22.318392    -15.860770      4.753314
     16.81664     10.59709     16.38899        -0.004978     -0.005391     -0.003765
      6.71066      3.80730     12.34244        -0.224426      0.014116     -0.728130
      2.06983     11.33642     15.26074        -0.000771     -0.000769      0.000025
      8.26067      0.38451     15.54206        -0.003005      0.004891      0.002155
     11.34895      8.75409     15.35502         0.003269     -0.001977      0.002903
     11.35500      9.00185     18.70378         0.022299     -0.009585      0.000629
 -----------------------------------------------------------------------------------
    total drift:                                0.175193      0.363952      0.511416


--------------------------------------------------------------------------------------------------------



  FREE ENERGIE OF THE ION-ELECTRON SYSTEM (eV)
  ---------------------------------------------------
  free  energy   TOTEN  =     -1894.61804111 eV

  energy  without entropy=    -1894.61804111  energy(sigma->0) =    -1894.61804111

 d Force = 0.1180520E-02[ 0.160E-04, 0.235E-02]  d Energy = 0.1138313E-02 0.422E-04
 d Force =-0.5966583E+00[-0.602E+00,-0.591E+00]  d Ewald  =-0.5966576E+00-0.662E-06


--------------------------------------------------------------------------------------------------------


    POTLOK:  cpu time    0.8424: real time    0.8447


--------------------------------------------------------------------------------------------------------


 stress matrix after NEB project (eV)
    -32.68914      0.03018      0.09153
      0.03018    -33.38909      0.05198
      0.09153      0.05198    -25.37025
  FORCES: max atom, RMS     0.031478    0.007770
  FORCE total and by dimension    0.129324    0.022878
  Stress total and by dimension   53.170339   33.389089
 Quasi-Newton relaxation of ions (Broydens 2nd method)
  g(Force)  = 0.807E-03   g(Stress)= 0.000E+00

 retain information from N=  1 steps
 eigenvalues of (default step * inverse Hessian matrix)
  average eigenvalue of G=   0.2162
 eigenvalue spectrum of G is  0.2162


--------------------------------------------------------------------------------------------------------


  
 reached required accuracy - stopping structural energy minimisation
     LOOP+:  cpu time  181.6214: real time  182.2868
    4ORBIT:  cpu time    0.0000: real time    0.0000

 total amount of memory used by VASP MPI-rank0   703408. kBytes
=======================================================================

   base      :      30000. kBytes
   nonlr-proj:      17057. kBytes
   fftplans  :      30982. kBytes
   grid      :      57864. kBytes
   one-center:       1088. kBytes
   wavefun   :     566417. kBytes

  
  
 General timing and accounting informations for this job:
 ========================================================
  
                  Total CPU time used (sec):     2311.511
                            User time (sec):     2306.994
                          System time (sec):        4.517
                         Elapsed time (sec):     2321.388
  
                   Maximum memory used (kb):      998272.
                   Average memory used (kb):           0.
  
                          Minor page faults:      5716415
                          Major page faults:          182
                 Voluntary context switches:         6362
