 vasp.5.4.4.18Apr17-6-g9f103f2a35 (build Oct 20 2021 08:33:53) complex           
 executed on             LinuxGNU date 2024.04.17  10:44:47
 running on   64 total cores
 each image running on    8 cores
 distrk:  each k-point on    8 cores,    1 groups
 distr:  one band on NCORES_PER_BAND=   4 cores,    2 groups


--------------------------------------------------------------------------------------------------------


 INCAR:
 POTCAR:    PAW_PBE C 08Apr2002                   
 POTCAR:    PAW_PBE H 15Jun2001                   
 POTCAR:    PAW_PBE O 08Apr2002                   
 POTCAR:    PAW_PBE Si 05Jan2001                  
 POTCAR:    PAW_PBE W 08Apr2002                   
 POTCAR:    PAW_PBE C 08Apr2002                   
   VRHFIN =C: s2p2                                                              
   LEXCH  = PE                                                                  
   EATOM  =   147.1560 eV,   10.8157 Ry                                         
                                                                                
   TITEL  = PAW_PBE C 08Apr2002                                                 
   LULTRA =        F    use ultrasoft PP ?                                      
   IUNSCR =        1    unscreen: 0-lin 1-nonlin 2-no                           
   RPACOR =    1.200    partial core radius                                     
   POMASS =   12.011; ZVAL   =    4.000    mass and valenz                      
   RCORE  =    1.500    outmost cutoff radius                                   
   RWIGS  =    1.630; RWIGS  =    0.863    wigner-seitz radius (au A)           
   ENMAX  =  400.000; ENMIN  =  300.000 eV                                      
   ICORE  =        2    local potential                                         
   LCOR   =        T    correct aug charges                                     
   LPAW   =        T    paw PP                                                  
   EAUG   =  644.873                                                            
   DEXC   =    0.000                                                            
   RMAX   =    1.529    core radius for proj-oper                               
   RAUG   =    1.300    factor for augmentation sphere                          
   RDEP   =    1.501    radius for radial grids                                 
   RDEPT  =    1.300    core radius for aug-charge                              
                                                                                
   Atomic configuration                                                         
    4 entries                                                                   
     n  l   j            E        occ.                                          
     1  0  0.50      -273.3789   2.0000                                         
     2  0  0.50       -13.7508   2.0000                                         
     2  1  0.50        -5.2854   2.0000                                         
     3  2  1.50        -5.4423   0.0000                                         
   Description                                                                  
     l       E           TYP  RCUT    TYP  RCUT                                 
     0    -13.7508458     23  1.200                                             
     0     -8.2022199     23  1.200                                             
     1     -5.2854383     23  1.500                                             
     1     34.0145650     23  1.500                                             
     2     -5.4423304      7  1.500                                             
  local pseudopotential read in
  partial core-charges read in
  partial kinetic energy density read in
  atomic valenz-charges read in
  non local Contribution for L=           0  read in
    real space projection operators read in
  non local Contribution for L=           0  read in
    real space projection operators read in
  non local Contribution for L=           1  read in
    real space projection operators read in
  non local Contribution for L=           1  read in
    real space projection operators read in
    PAW grid and wavefunctions read in

   number of l-projection  operators is LMAX  =           4
   number of lm-projection operators is LMMAX =           8

 POTCAR:    PAW_PBE H 15Jun2001                   
   VRHFIN =H: ultrasoft test                                                    
   LEXCH  = PE                                                                  
   EATOM  =    12.4884 eV,    0.9179 Ry                                         
                                                                                
   TITEL  = PAW_PBE H 15Jun2001                                                 
   LULTRA =        F    use ultrasoft PP ?                                      
   IUNSCR =        0    unscreen: 0-lin 1-nonlin 2-no                           
   RPACOR =    0.000    partial core radius                                     
   POMASS =    1.000; ZVAL   =    1.000    mass and valenz                      
   RCORE  =    1.100    outmost cutoff radius                                   
   RWIGS  =    0.700; RWIGS  =    0.370    wigner-seitz radius (au A)           
   ENMAX  =  250.000; ENMIN  =  200.000 eV                                      
   RCLOC  =    0.701    cutoff for local pot                                    
   LCOR   =        T    correct aug charges                                     
   LPAW   =        T    paw PP                                                  
   EAUG   =  400.000                                                            
   RMAX   =    1.123    core radius for proj-oper                               
   RAUG   =    1.200    factor for augmentation sphere                          
   RDEP   =    1.112    radius for radial grids                                 
   RDEPT  =    0.926    core radius for aug-charge                              
                                                                                
   Atomic configuration                                                         
    2 entries                                                                   
     n  l   j            E        occ.                                          
     1  0  0.50        -6.4927   1.0000                                         
     2  1  0.50        -3.4015   0.0000                                         
   Description                                                                  
     l       E           TYP  RCUT    TYP  RCUT                                 
     0     -6.4927494     23  1.100                                             
     0      6.8029130     23  1.100                                             
     1     -4.0817478     23  1.100                                             
  local pseudopotential read in
  atomic valenz-charges read in
  non local Contribution for L=           0  read in
    real space projection operators read in
  non local Contribution for L=           0  read in
    real space projection operators read in
  non local Contribution for L=           1  read in
    real space projection operators read in
    PAW grid and wavefunctions read in

   number of l-projection  operators is LMAX  =           3
   number of lm-projection operators is LMMAX =           5

 POTCAR:    PAW_PBE O 08Apr2002                   
   VRHFIN =O: s2p4                                                              
   LEXCH  = PE                                                                  
   EATOM  =   432.3788 eV,   31.7789 Ry                                         
                                                                                
   TITEL  = PAW_PBE O 08Apr2002                                                 
   LULTRA =        F    use ultrasoft PP ?                                      
   IUNSCR =        1    unscreen: 0-lin 1-nonlin 2-no                           
   RPACOR =    1.200    partial core radius                                     
   POMASS =   16.000; ZVAL   =    6.000    mass and valenz                      
   RCORE  =    1.520    outmost cutoff radius                                   
   RWIGS  =    1.550; RWIGS  =    0.820    wigner-seitz radius (au A)           
   ENMAX  =  400.000; ENMIN  =  300.000 eV                                      
   ICORE  =        2    local potential                                         
   LCOR   =        T    correct aug charges                                     
   LPAW   =        T    paw PP                                                  
   EAUG   =  605.392                                                            
   DEXC   =    0.000                                                            
   RMAX   =    1.553    core radius for proj-oper                               
   RAUG   =    1.300    factor for augmentation sphere                          
   RDEP   =    1.550    radius for radial grids                                 
   RDEPT  =    1.329    core radius for aug-charge                              
                                                                                
   Atomic configuration                                                         
    4 entries                                                                   
     n  l   j            E        occ.                                          
     1  0  0.50      -514.6923   2.0000                                         
     2  0  0.50       -23.9615   2.0000                                         
     2  1  0.50        -9.0305   4.0000                                         
     3  2  1.50        -9.5241   0.0000                                         
   Description                                                                  
     l       E           TYP  RCUT    TYP  RCUT                                 
     0    -23.9615318     23  1.200                                             
     0     -9.5240782     23  1.200                                             
     1     -9.0304911     23  1.520                                             
     1      8.1634956     23  1.520                                             
     2     -9.5240782      7  1.500                                             
  local pseudopotential read in
  partial core-charges read in
  partial kinetic energy density read in
  kinetic energy density of atom read in
  atomic valenz-charges read in
  non local Contribution for L=           0  read in
    real space projection operators read in
  non local Contribution for L=           0  read in
    real space projection operators read in
  non local Contribution for L=           1  read in
    real space projection operators read in
  non local Contribution for L=           1  read in
    real space projection operators read in
    PAW grid and wavefunctions read in

   number of l-projection  operators is LMAX  =           4
   number of lm-projection operators is LMMAX =           8

 POTCAR:    PAW_PBE Si 05Jan2001                  
   VRHFIN =Si: s2p2                                                             
   LEXCH  = PE                                                                  
   EATOM  =   103.0669 eV,    7.5752 Ry                                         
                                                                                
   TITEL  = PAW_PBE Si 05Jan2001                                                
   LULTRA =        F    use ultrasoft PP ?                                      
   IUNSCR =        1    unscreen: 0-lin 1-nonlin 2-no                           
   RPACOR =    1.500    partial core radius                                     
   POMASS =   28.085; ZVAL   =    4.000    mass and valenz                      
   RCORE  =    1.900    outmost cutoff radius                                   
   RWIGS  =    2.480; RWIGS  =    1.312    wigner-seitz radius (au A)           
   ENMAX  =  245.345; ENMIN  =  184.009 eV                                      
   ICORE  =        2    local potential                                         
   LCOR   =        T    correct aug charges                                     
   LPAW   =        T    paw PP                                                  
   EAUG   =  322.069                                                            
   DEXC   =    0.000                                                            
   RMAX   =    1.950    core radius for proj-oper                               
   RAUG   =    1.300    factor for augmentation sphere                          
   RDEP   =    1.993    radius for radial grids                                 
   RDEPT  =    1.837    core radius for aug-charge                              
                                                                                
   Atomic configuration                                                         
    6 entries                                                                   
     n  l   j            E        occ.                                          
     1  0  0.50     -1785.8828   2.0000                                         
     2  0  0.50      -139.4969   2.0000                                         
     2  1  1.50       -95.5546   6.0000                                         
     3  0  0.50       -10.8127   2.0000                                         
     3  1  0.50        -4.0811   2.0000                                         
     3  2  1.50        -4.0817   0.0000                                         
   Description                                                                  
     l       E           TYP  RCUT    TYP  RCUT                                 
     0    -10.8127223     23  1.900                                             
     0     -7.6451159     23  1.900                                             
     1     -4.0811372     23  1.900                                             
     1      2.4879257     23  1.900                                             
     2     -4.0817478      7  1.900                                             
  local pseudopotential read in
  partial core-charges read in
  partial kinetic energy density read in
  atomic valenz-charges read in
  non local Contribution for L=           0  read in
    real space projection operators read in
  non local Contribution for L=           0  read in
    real space projection operators read in
  non local Contribution for L=           1  read in
    real space projection operators read in
  non local Contribution for L=           1  read in
    real space projection operators read in
    PAW grid and wavefunctions read in

   number of l-projection  operators is LMAX  =           4
   number of lm-projection operators is LMMAX =           8

 POTCAR:    PAW_PBE W 08Apr2002                   
   VRHFIN =W : 6s5d                                                             
   LEXCH  = PE                                                                  
   EATOM  =   204.6103 eV,   15.0384 Ry                                         
                                                                                
   TITEL  = PAW_PBE W 08Apr2002                                                 
   LULTRA =        F    use ultrasoft PP ?                                      
   IUNSCR =        1    unscreen: 0-lin 1-nonlin 2-no                           
   RPACOR =    2.330    partial core radius                                     
   POMASS =  183.850; ZVAL   =    6.000    mass and valenz                      
   RCORE  =    2.750    outmost cutoff radius                                   
   RWIGS  =    2.750; RWIGS  =    1.455    wigner-seitz radius (au A)           
   ENMAX  =  223.057; ENMIN  =  167.293 eV                                      
   RCLOC  =    2.147    cutoff for local pot                                    
   LCOR   =        T    correct aug charges                                     
   LPAW   =        T    paw PP                                                  
   EAUG   =  373.438                                                            
   DEXC   =    0.000                                                            
   RMAX   =    2.801    core radius for proj-oper                               
   RAUG   =    1.300    factor for augmentation sphere                          
   RDEP   =    2.886    radius for radial grids                                 
   RDEPT  =    2.230    core radius for aug-charge                              
                                                                                
   Atomic configuration                                                         
   16 entries                                                                   
     n  l   j            E        occ.                                          
     1  0  0.50    -69465.5836   2.0000                                         
     2  0  0.50    -11986.2642   2.0000                                         
     2  1  1.50    -10479.8616   6.0000                                         
     3  0  0.50     -2759.0758   2.0000                                         
     3  1  1.50     -2313.1857   6.0000                                         
     3  2  2.50     -1801.1185  10.0000                                         
     4  0  0.50      -567.6791   2.0000                                         
     4  1  1.50      -421.4694   6.0000                                         
     4  2  2.50      -236.3473  10.0000                                         
     4  3  3.50       -31.2666  14.0000                                         
     5  0  0.50       -77.1085   2.0000                                         
     5  1  1.50       -41.3856   6.0000                                         
     5  2  2.50        -3.3185   5.0000                                         
     6  0  0.50        -5.1438   1.0000                                         
     6  1  0.50        -3.8096   0.0000                                         
     5  3  2.50        -1.3606   0.0000                                         
   Description                                                                  
     l       E           TYP  RCUT    TYP  RCUT                                 
     2     -3.3185288     23  2.500                                             
     2     -1.5965414     23  2.500                                             
     0     -5.1438054     23  2.500                                             
     0      4.9117504     23  2.500                                             
     1      2.7211652     23  2.750                                             
     1     27.2116520     23  2.750                                             
  local pseudopotential read in
  partial core-charges read in
  partial kinetic energy density read in
  atomic valenz-charges read in
  non local Contribution for L=           2  read in
    real space projection operators read in
  non local Contribution for L=           2  read in
    real space projection operators read in
  non local Contribution for L=           0  read in
    real space projection operators read in
  non local Contribution for L=           0  read in
    real space projection operators read in
  non local Contribution for L=           1  read in
    real space projection operators read in
  non local Contribution for L=           1  read in
    real space projection operators read in
    PAW grid and wavefunctions read in

   number of l-projection  operators is LMAX  =           6
   number of lm-projection operators is LMMAX =          18

 Optimization of the real space projectors (new method)

 maximal supplied QI-value         = 25.13
 optimisation between [QCUT,QGAM] = [ 11.31, 22.87] = [ 35.82,146.48] Ry 
 Optimized for a Real-space Cutoff    1.00 Angstroem

   l    n(q)    QCUT    max X(q) W(low)/X(q) W(high)/X(q)  e(spline) 
   0      7    11.310   115.676    0.43E-03    0.13E-02    0.19E-06
   0      7    11.310    87.132    0.43E-03    0.13E-02    0.18E-06
   1      6    11.310     4.429    0.42E-03    0.74E-03    0.11E-06
   1      6    11.310     2.733    0.34E-03    0.55E-03    0.92E-07
 Optimization of the real space projectors (new method)

 maximal supplied QI-value         = 34.20
 optimisation between [QCUT,QGAM] = [ 11.29, 22.57] = [ 35.68,142.71] Ry 
 Optimized for a Real-space Cutoff    1.16 Angstroem

   l    n(q)    QCUT    max X(q) W(low)/X(q) W(high)/X(q)  e(spline) 
   0      8    11.287    19.460    0.40E-03    0.73E-03    0.16E-06
   0      8    11.287    12.209    0.38E-03    0.70E-03    0.15E-06
   1      7    11.287     4.655    0.22E-03    0.25E-04    0.22E-06
 Optimization of the real space projectors (new method)

 maximal supplied QI-value         = 24.76
 optimisation between [QCUT,QGAM] = [ 11.39, 22.77] = [ 36.31,145.25] Ry 
 Optimized for a Real-space Cutoff    1.00 Angstroem

   l    n(q)    QCUT    max X(q) W(low)/X(q) W(high)/X(q)  e(spline) 
   0      7    11.387    20.381    0.39E-03    0.13E-02    0.15E-06
   0      7    11.387    15.268    0.42E-03    0.14E-02    0.17E-06
   1      6    11.387     5.964    0.41E-03    0.11E-02    0.17E-06
   1      6    11.387     5.382    0.39E-03    0.87E-03    0.15E-06
 Optimization of the real space projectors (new method)

 maximal supplied QI-value         = 19.84
 optimisation between [QCUT,QGAM] = [ 11.31, 22.82] = [ 35.82,145.81] Ry 
 Optimized for a Real-space Cutoff    1.16 Angstroem

   l    n(q)    QCUT    max X(q) W(low)/X(q) W(high)/X(q)  e(spline) 
   0      8    11.310   159.560    0.27E-03    0.30E-03    0.39E-07
   0      8    11.310   115.863    0.27E-03    0.30E-03    0.38E-07
   1      7    11.310    88.339    0.28E-03    0.28E-03    0.77E-07
   1      7    11.310    48.592    0.27E-03    0.27E-03    0.74E-07
 Optimization of the real space projectors (new method)

 maximal supplied QI-value         = 13.61
 optimisation between [QCUT,QGAM] = [ 11.43, 22.86] = [ 36.58,146.31] Ry 
 Optimized for a Real-space Cutoff    1.56 Angstroem

   l    n(q)    QCUT    max X(q) W(low)/X(q) W(high)/X(q)  e(spline) 
   2     10    11.429   130.855    0.22E-03    0.64E-03    0.11E-05
   2     10    11.429   114.007    0.22E-03    0.64E-03    0.11E-05
   0     11    11.429    84.709    0.39E-04    0.67E-04    0.23E-06
   0     11    11.429    49.163    0.35E-04    0.62E-04    0.21E-06
   1     10    11.429    15.765    0.84E-04    0.15E-03    0.24E-06
   1     10    11.429    10.638    0.58E-04    0.12E-03    0.19E-06

 ----------------------------------------------------------------------------- 
|                                                                             |
|  ADVICE TO THIS USER RUNNING 'VASP/VAMP'   (HEAR YOUR MASTER'S VOICE ...):  |
|                                                                             |
|      You enforced a specific xc-type in the INCAR file,                     |
|      a different type was found on the POTCAR file                          |
|          I HOPE YOU KNOW, WHAT YOU ARE  DOING                               |
|                                                                             |
 ----------------------------------------------------------------------------- 

  PAW_PBE C 08Apr2002                   :
 energy of atom  1       EATOM= -147.1560
 kinetic energy error for atom=    0.0076 (will be added to EATOM!!)
  PAW_PBE H 15Jun2001                   :
 energy of atom  2       EATOM=  -12.4884
 kinetic energy error for atom=    0.0020 (will be added to EATOM!!)
  PAW_PBE O 08Apr2002                   :
 energy of atom  3       EATOM= -432.3788
 kinetic energy error for atom=    0.0224 (will be added to EATOM!!)
  PAW_PBE Si 05Jan2001                  :
 energy of atom  4       EATOM= -103.0669
 kinetic energy error for atom=    0.0006 (will be added to EATOM!!)
  PAW_PBE W 08Apr2002                   :
 energy of atom  5       EATOM= -204.6103
 kinetic energy error for atom=    0.0017 (will be added to EATOM!!)


 POSCAR:  C  H  O Si  W                          
  positions in direct lattice
  velocities in cartesian coordinates
 exchange correlation table for  LEXCH =        9
   RHO(1)=    0.500       N(1)  =     2000
   RHO(2)=  100.500       N(2)  =     4000

 VTST: version 3.2, (02/03/18)

 CHAIN: initializing optimizer
 
 OPT: Using FIRE optimizer
 OPT: FIRE, Init
 OPT: FIRE, MAXMOVE       0.20000
 OPT: FIRE, TIMESTEP      0.10000
 OPT: FIRE, FTIMEMAX      1.00000
 OPT: FIRE, FTIMEINC      1.10000
 OPT: FIRE, FTIMEDEC      0.50000
 OPT: FIRE, FALPHADEC     0.99000
 OPT: FIRE, FALPHA        0.10000
 OPT: FIRE, FNMIN         5
 
 CHAIN: Read ICHAIN            0
 CHAIN: Running the NEB
 NEB:          SPRING     -5.000000
 NEB:          LCLIMB      T
 NEB:     LTANGENTOLD      F
 NEB:           LDNEB      F
 NEB:        LDNEBORG      F
 NEB:        LNEBCELL      F
 NEB:          EFIRST      0.000000
 NEB:           ELAST      0.000000

 POSCAR:  C  H  O Si  W                          
  positions in cartesian coordinates
  No initial velocities read in

 POSCAR:  C  H  O Si  W                          
  positions in cartesian coordinates
  No initial velocities read in



--------------------------------------------------------------------------------------------------------


 ion  position               nearest neighbor table
   1  0.521  0.540  0.754-  49 1.10   3 1.51 277 1.95
   2  0.551  0.389  0.748-  50 1.10 210 1.27   4 1.49
   3  0.576  0.584  0.751-  52 1.10  51 1.10  53 1.11   1 1.51
   4  0.543  0.325  0.782-  55 1.10  54 1.10  56 1.11   2 1.49
   5  0.763  0.102  0.652- 131 0.97
   6  0.926  0.279  0.356-  79 0.98
   7  0.793  0.207  0.373- 114 0.97
   8  0.975  0.944  0.325- 123 0.97
   9  0.626  0.963  0.375- 125 0.98
  10  0.821  0.995  0.369- 143 0.97
  11  0.750  0.141  0.458- 181 0.98
  12  0.915  0.249  0.509- 186 0.97
  13  0.583  0.304  0.306- 191 0.97
  14  0.892  0.335  0.616-  97 0.98
  15  0.585  0.356  0.616- 142 0.97
  16  0.593  0.871  0.578- 184 0.99
  17  0.034  0.337  0.653- 190 0.97
  18  0.935  0.420  0.454- 179 0.98
  19  0.746  0.530  0.422-  93 1.00
  20  0.799  0.383  0.635- 171 0.97
  21  0.591  0.569  0.378- 105 0.99
  22  0.718  0.646  0.383- 128 0.99
  23  0.841  0.542  0.420- 134 0.98
  24  0.005  0.604  0.358- 139 0.97
  25  0.828  0.712  0.468- 180 0.99
  26  0.879  0.599  0.720-  59 0.97
  27  0.520  0.986  0.422- 141 0.99
  28  0.223  0.980  0.393- 182 1.00
  29  0.216  0.238  0.319- 197 0.99
  30  0.158  0.330  0.279- 188 0.97
  31  0.342  0.156  0.331- 189 0.98
  32  0.223  0.046  0.323- 196 0.97
  33  0.511  0.825  0.547- 199 0.97
  34  0.371  0.237  0.647-  84 0.97
  35  0.244  0.093  0.599- 135 0.98
  36  0.315  0.487  0.442-  58 0.99
  37  0.409  0.439  0.406- 147 0.98
  38  0.398  0.793  0.389- 185 0.97
  39  0.244  0.655  0.294- 193 0.97
  40  0.312  0.418  0.369- 194 0.98
  41  0.405  0.584  0.339- 195 0.97
  42  0.139  0.488  0.352- 187 0.98
  43  0.593  0.698  0.352-  88 0.97
  44  0.469  0.861  0.444- 198 0.99
  45  0.124  0.324  0.614- 107 0.97
  46  0.075  0.663  0.647- 138 0.97
  47  0.246  0.390  0.682- 183 0.97
  48  0.246  0.814  0.670- 192 0.97
  49  0.500  0.540  0.790-   1 1.10
  50  0.583  0.430  0.757-   2 1.10
  51  0.603  0.576  0.784-   3 1.10
  52  0.602  0.571  0.718-   3 1.10
  53  0.565  0.643  0.749-   3 1.11
  54  0.548  0.343  0.821-   4 1.10
  55  0.502  0.297  0.776-   4 1.10
  56  0.578  0.286  0.775-   4 1.11
  57  0.369  0.648  0.439- 231 1.66 266 1.68
  58  0.347  0.504  0.420-  36 0.99 266 1.67
  59  0.860  0.566  0.697-  26 0.97 237 1.64
  60  0.348  0.959  0.531- 242 1.68 275 1.70
  61  0.033  0.933  0.528- 257 1.63 268 1.65
  62  0.636  0.079  0.489- 235 1.60 224 1.65
  63  0.069  0.052  0.395- 223 1.64 215 1.65
  64  0.452  0.130  0.421- 240 1.65 221 1.65
  65  0.806  0.214  0.483- 239 1.67 236 1.69
  66  0.973  0.182  0.599- 217 1.63 247 1.65
  67  0.275  0.299  0.449- 263 1.65 273 1.66
  68  0.556  0.775  0.442- 244 1.51 271 1.66
  69  0.392  0.974  0.619- 261 1.65 275 1.66
  70  0.178  0.350  0.405- 263 1.66 238 1.67
  71  0.866  0.684  0.637- 241 1.64 237 1.65
  72  0.866  0.967  0.467- 233 1.60 248 1.65
  73  0.301  0.761  0.458- 231 1.65 245 1.67
  74  0.422  0.261  0.380- 240 1.67 260 1.67
  75  0.811  0.466  0.520- 267 1.63 214 1.64
  76  0.983  0.073  0.521- 257 1.68 217 1.69
  77  0.509  0.471  0.629- 276 1.64 277 2.03
  78  0.035  0.920  0.429- 268 1.64 215 1.65
  79  0.963  0.303  0.351-   6 0.98 216 1.65
  80  0.070  0.336  0.376- 216 1.64 238 1.65
  81  0.208  0.729  0.395- 245 1.66 255 1.67
  82  0.039  0.419  0.499- 270 1.64 243 1.65
  83  0.240  0.286  0.588- 251 1.63 228 1.63
  84  0.398  0.196  0.645-  34 0.97 222 1.64
  85  0.453  0.566  0.576- 276 1.68 253 1.68
  86  0.910  0.749  0.557- 241 1.64 220 1.65
  87  0.869  0.108  0.442- 248 1.64 236 1.65
  88  0.573  0.667  0.376-  43 0.97 244 1.68
  89  0.142  0.159  0.376- 269 1.65 223 1.65
  90  0.350  0.766  0.607- 213 1.62 254 1.64
  91  0.911  0.845  0.483- 233 1.62 220 1.66
  92  0.061  0.537  0.442- 270 1.66 212 1.67
  93  0.708  0.555  0.420-  19 1.00 226 1.67
  94  0.075  0.817  0.483- 268 1.50 250 1.65
  95  0.700  0.828  0.433- 225 1.53 258 1.65
  96  0.730  0.049  0.543- 224 1.64 259 1.64
  97  0.919  0.302  0.632-  14 0.98 247 1.63
  98  0.735  0.852  0.613- 232 1.66 229 1.68
  99  0.625  0.527  0.486- 234 1.58 226 1.68
 100  0.557  0.630  0.467- 244 1.52 234 1.63
 101  0.425  0.248  0.555- 222 1.68 265 1.69
 102  0.978  0.728  0.477- 250 1.65 220 1.65
 103  0.654  0.595  0.633- 272 1.64 218 1.67
 104  0.397  0.747  0.515- 231 1.65 213 1.66
 105  0.603  0.518  0.386-  21 0.99 226 1.65
 106  0.720  0.631  0.557- 256 1.62 272 1.64
 107  0.149  0.365  0.622-  45 0.97 228 1.64
 108  0.066  0.548  0.542- 270 1.63 274 1.64
 109  0.819  0.885  0.537- 233 1.65 232 1.67
 110  0.828  0.355  0.452- 239 1.65 214 1.65
 111  0.527  0.298  0.532- 265 1.62 246 1.63
 112  0.736  0.499  0.596- 272 1.66 267 1.66
 113  0.557  0.172  0.395- 252 1.59 221 1.64
 114  0.806  0.256  0.383-   7 0.97 239 1.67
 115  0.237  0.953  0.508- 242 1.58 227 1.67
 116  0.692  0.775  0.542- 256 1.63 229 1.64
 117  0.924  0.950  0.553- 257 1.65 233 1.66
 118  0.526  0.318  0.399- 252 1.45 260 1.66
 119  0.468  0.991  0.546- 261 1.69 262 1.70
 120  0.838  0.095  0.540- 236 1.66 259 1.66
 121  0.538  0.116  0.486- 235 1.61 221 1.67
 122  0.350  0.187  0.440- 273 1.63 240 1.65
 123  0.012  0.962  0.335-   8 0.97 215 1.65
 124  0.451  0.589  0.671- 253 1.63 277 1.99
 125  0.655  0.925  0.379-   9 0.98 225 1.66
 126  0.076  0.686  0.436- 212 1.65 250 1.66
 127  0.453  0.405  0.553- 276 1.69 265 1.69
 128  0.719  0.700  0.380-  22 0.99 258 1.65
 129  0.451  0.706  0.600- 213 1.62 253 1.64
 130  0.753  0.709  0.476- 256 1.63 258 1.69
 131  0.779  0.120  0.621-   5 0.97 259 1.64
 132  0.993  0.308  0.448- 243 1.66 216 1.68
 133  0.535  0.507  0.532- 234 1.64 276 1.64
 134  0.817  0.499  0.423-  23 0.98 214 1.69
 135  0.236  0.145  0.605-  35 0.98 251 1.62
 136  0.204  0.831  0.471- 227 1.50 245 1.63
 137  0.240  0.559  0.523- 230 1.65 219 1.66
 138  0.061  0.625  0.624-  46 0.97 274 1.63
 139  0.046  0.602  0.354-  24 0.97 212 1.65
 140  0.800  0.978  0.606- 232 1.66 259 1.68
 141  0.538  0.028  0.405-  27 0.99 221 1.66
 142  0.606  0.313  0.605-  15 0.97 246 1.64
 143  0.862  0.004  0.369-  10 0.97 248 1.66
 144  0.095  0.149  0.467- 249 1.62 223 1.65
 145  0.171  0.204  0.531- 249 1.61 251 1.63
 146  0.641  0.704  0.455- 244 1.65 258 1.66
 147  0.437  0.410  0.386-  37 0.98 260 1.66
 148  0.574  0.059  0.571- 262 1.62 235 1.65
 149  0.151  0.593  0.389- 255 1.68 212 1.68
 150  0.268  0.602  0.392- 266 1.65 255 1.67
 151  0.440  0.322  0.470- 265 1.65 260 1.69
 152  0.238  0.159  0.430- 269 1.65 273 1.67
 153  0.073  0.150  0.563- 249 1.64 217 1.64
 154  0.844  0.545  0.599- 267 1.66 237 1.66
 155  0.621  0.280  0.411- 264 1.65 252 1.66
 156  0.603  0.892  0.467- 271 1.29 225 1.67
 157  0.031  0.195  0.389- 216 1.66 223 1.66
 158  0.608  0.196  0.547- 235 1.62 246 1.64
 159  0.133  0.938  0.479- 268 1.65 227 1.66
 160  0.080  0.280  0.511- 243 1.64 249 1.65
 161  0.372  0.106  0.568- 275 1.64 222 1.69
 162  0.067  0.697  0.536- 250 1.63 274 1.63
 163  0.666  0.415  0.430- 226 1.65 264 1.65
 164  0.799  0.730  0.564- 256 1.61 241 1.63
 165  0.704  0.957  0.470- 224 1.65 225 1.66
 166  0.598  0.635  0.553- 234 1.63 218 1.63
 167  0.723  0.294  0.452- 239 1.63 264 1.64
 168  0.978  0.314  0.547- 243 1.64 247 1.67
 169  0.158  0.630  0.571- 230 1.63 274 1.65
 170  0.633  0.327  0.508- 246 1.63 264 1.65
 171  0.820  0.397  0.605-  20 0.97 267 1.65
 172  0.959  0.027  0.417- 248 1.64 215 1.65
 173  0.282  0.195  0.519- 273 1.63 251 1.65
 174  0.249  0.443  0.461- 219 1.66 263 1.71
 175  0.272  0.851  0.569- 242 1.64 254 1.65
 176  0.204  0.686  0.487- 230 1.63 245 1.66
 177  0.147  0.476  0.493- 219 1.63 270 1.65
 178  0.224  0.422  0.557- 219 1.61 228 1.63
 179  0.911  0.453  0.474-  18 0.98 214 1.65
 180  0.870  0.705  0.464-  25 0.99 220 1.65
 181  0.738  0.093  0.445-  11 0.98 224 1.66
 182  0.222  0.930  0.408-  28 1.00 227 1.64
 183  0.256  0.403  0.648-  47 0.97 228 1.64
 184  0.630  0.883  0.593-  16 0.99 229 1.62
 185  0.410  0.789  0.423-  38 0.97 231 1.68
 186  0.918  0.196  0.508-  12 0.97 236 1.65
 187  0.133  0.444  0.332-  42 0.98 238 1.65
 188  0.155  0.304  0.311-  30 0.97 238 1.69
 189  0.373  0.131  0.348-  31 0.98 240 1.66
 190  0.035  0.292  0.633-  17 0.97 247 1.66
 191  0.573  0.257  0.320-  13 0.97 252 1.66
 192  0.245  0.770  0.650-  48 0.97 254 1.64
 193  0.207  0.648  0.310-  39 0.97 255 1.65
 194  0.275  0.392  0.367-  40 0.98 263 1.66
 195  0.365  0.598  0.342-  41 0.97 266 1.67
 196  0.226  0.056  0.358-  32 0.97 269 1.69
 197  0.241  0.196  0.329-  29 0.99 269 1.66
 198  0.501  0.892  0.455-  44 0.99 271 1.60
 199  0.550  0.828  0.534-  33 0.97 271 1.67
 200  0.543  0.645  0.634- 218 1.64 253 1.69
 201  0.478  0.123  0.596- 222 1.65 262 1.65
 202  0.262  0.695  0.569- 230 1.65 254 1.65
 203  0.442  0.848  0.581- 261 1.65 213 1.69
 204  0.765  0.617  0.650- 272 1.65 237 1.66
 205  0.845  0.832  0.623- 241 1.66 232 1.68
 206  0.638  0.739  0.621- 218 1.68 229 1.71
 207  0.008  0.033  0.603- 217 1.69 257 1.69
 208  0.284  0.003  0.593- 275 1.70 242 1.70
 209  0.503  0.972  0.628- 261 1.69 262 1.70
 210  0.526  0.391  0.705-   2 1.27 277 2.17
 211  0.420  0.462  0.727- 277 1.72
 212  0.083  0.606  0.406- 139 1.65 126 1.65  92 1.67 149 1.68 270 3.13
 213  0.409  0.766  0.575- 129 1.62  90 1.62 104 1.66 203 1.69 254 3.06
 214  0.842  0.441  0.468-  75 1.64 110 1.65 179 1.65 134 1.69
 215  0.017  0.990  0.394-  63 1.65 172 1.65  78 1.65 123 1.65 268 3.11 223 3.13
 216  0.015  0.284  0.391-  80 1.64  79 1.65 157 1.66 132 1.68 243 3.11 223 3.11
 217  0.009  0.115  0.573-  66 1.63 153 1.64  76 1.69 207 1.69 257 2.39 249 3.05 247 3.07
 218  0.608  0.657  0.611- 166 1.63 200 1.64 103 1.67 206 1.68 272 2.89 234 3.14
 219  0.214  0.476  0.510- 178 1.61 177 1.63 137 1.66 174 1.66 230 3.10 263 3.14
 220  0.915  0.756  0.496- 102 1.65 180 1.65  86 1.65  91 1.66 233 2.99 241 3.03
 221  0.521  0.110  0.426- 113 1.64  64 1.65 141 1.66 121 1.67 252 3.08 235 3.12
 222  0.418  0.170  0.589-  84 1.64 201 1.65 101 1.68 161 1.69 275 3.13 262 3.14
 223  0.083  0.139  0.407-  63 1.64 144 1.65  89 1.65 157 1.66 216 3.11 215 3.13 269 3.14
 224  0.702  0.045  0.487-  96 1.64 165 1.65  62 1.65 181 1.66 235 3.09 225 3.10 259 3.15
 225  0.665  0.898  0.437-  95 1.53 165 1.66 125 1.66 156 1.67 271 2.83 258 3.06 224 3.10
 226  0.650  0.504  0.430- 105 1.65 163 1.65  93 1.67  99 1.68 234 3.08
 227  0.198  0.912  0.464- 136 1.50 182 1.64 159 1.66 115 1.67 245 3.01 242 3.06 268 3.07
 228  0.216  0.367  0.604-  83 1.63 178 1.63 107 1.64 183 1.64
 229  0.673  0.813  0.595- 184 1.62 116 1.64  98 1.68 206 1.71 256 2.91
 230  0.217  0.642  0.539- 169 1.63 176 1.63 202 1.65 137 1.65 245 3.09 219 3.10 274 3.12
 231  0.369  0.735  0.459- 104 1.65  73 1.65  57 1.66 185 1.68
 232  0.797  0.888  0.596- 140 1.66  98 1.66 109 1.67 205 1.68 241 2.86 233 3.00
 233  0.880  0.912  0.512-  72 1.60  91 1.62 109 1.65 117 1.66 220 2.99 232 3.00 257 3.05 248 3.14

 234  0.576  0.574  0.512-  99 1.58 166 1.63 100 1.63 133 1.64 244 3.01 226 3.08 218 3.14 276 3.14

 235  0.590  0.116  0.525-  62 1.60 121 1.61 158 1.62 148 1.65 262 2.85 224 3.09 246 3.12 221 3.12

 236  0.858  0.152  0.495- 186 1.65  87 1.65 120 1.66  65 1.69 248 3.07 239 3.15
 237  0.835  0.604  0.646-  59 1.64  71 1.65 204 1.66 154 1.66 272 2.93 241 3.00 267 3.01
 238  0.134  0.360  0.357- 187 1.65  80 1.65  70 1.67 188 1.69 263 3.11
 239  0.791  0.280  0.442- 167 1.63 110 1.65 114 1.67  65 1.67 236 3.15
 240  0.399  0.177  0.396-  64 1.65 122 1.65 189 1.66  74 1.67 260 3.07
 241  0.856  0.750  0.596- 164 1.63  86 1.64  71 1.64 205 1.66 232 2.86 237 3.00 220 3.03
 242  0.283  0.935  0.550- 115 1.58 175 1.64  60 1.68 208 1.70 275 2.38 227 3.06
 243  0.023  0.330  0.502- 160 1.64 168 1.64  82 1.65 132 1.66 247 3.11 216 3.11 249 3.13
 244  0.575  0.695  0.436-  68 1.51 100 1.52 146 1.65  88 1.68 234 3.01 271 3.06 258 3.10
 245  0.230  0.753  0.452- 136 1.63 176 1.66  81 1.66  73 1.67 255 2.97 227 3.01 230 3.09
 246  0.594  0.284  0.548- 170 1.63 111 1.63 158 1.64 142 1.64 235 3.12
 247  0.975  0.272  0.603-  97 1.63  66 1.65 190 1.66 168 1.67 217 3.07 243 3.11
 248  0.889  0.025  0.424-  87 1.64 172 1.64  72 1.65 143 1.66 236 3.07 233 3.14
 249  0.105  0.196  0.518- 145 1.61 144 1.62 153 1.64 160 1.65 217 3.05 243 3.13
 250  0.048  0.733  0.483- 162 1.63 102 1.65  94 1.65 126 1.66 268 3.05 274 3.15
 251  0.232  0.206  0.561- 135 1.62  83 1.63 145 1.63 173 1.65 273 3.03
 252  0.561  0.258  0.381- 118 1.45 113 1.59 155 1.66 191 1.66 260 2.87 221 3.08
 253  0.475  0.626  0.620- 124 1.63 129 1.64  85 1.68 200 1.69 276 2.89 277 3.18
 254  0.281  0.771  0.598-  90 1.64 192 1.64 202 1.65 175 1.65 213 3.06
 255  0.209  0.643  0.372- 193 1.65 150 1.67  81 1.67 149 1.68 245 2.97
 256  0.740  0.710  0.536- 164 1.61 106 1.62 130 1.63 116 1.63 229 2.91 258 2.91 272 3.06
 257  0.987  0.991  0.550-  61 1.63 117 1.65  76 1.68 207 1.69 217 2.39 233 3.05
 258  0.703  0.737  0.434-  95 1.65 128 1.65 146 1.66 130 1.69 256 2.91 225 3.06 244 3.10
 259  0.788  0.059  0.577-  96 1.64 131 1.64 120 1.66 140 1.68 224 3.15
 260  0.456  0.328  0.409- 147 1.66 118 1.66  74 1.67 151 1.69 252 2.87 240 3.07
 261  0.449  0.937  0.594- 203 1.65  69 1.65 119 1.69 209 1.69 262 2.36 275 2.74
 262  0.508  0.042  0.586- 148 1.62 201 1.65 119 1.70 209 1.70 261 2.36 235 2.85 222 3.14
 263  0.244  0.370  0.421-  67 1.65  70 1.66 194 1.66 174 1.71 238 3.11 219 3.14
 264  0.659  0.330  0.450- 167 1.64 155 1.65 163 1.65 170 1.65
 265  0.460  0.319  0.529- 111 1.62 151 1.65 101 1.69 127 1.69
 266  0.337  0.590  0.399- 150 1.65 195 1.67  58 1.67  57 1.68
 267  0.803  0.477  0.580-  75 1.63 171 1.65 154 1.66 112 1.66 272 2.90 237 3.01
 268  0.069  0.899  0.481-  94 1.50  78 1.64 159 1.65  61 1.65 250 3.05 227 3.07 215 3.11
 269  0.212  0.144  0.374-  89 1.65 152 1.65 197 1.66 196 1.69 273 3.12 223 3.14
 270  0.078  0.494  0.495- 108 1.63  82 1.64 177 1.65  92 1.66 274 3.09 212 3.13
 271  0.558  0.852  0.475- 156 1.29 198 1.60  68 1.66 199 1.67 225 2.83 244 3.06
 272  0.718  0.585  0.610- 106 1.64 103 1.64 204 1.65 112 1.66 218 2.89 267 2.90 237 2.93 256 3.06

 273  0.287  0.210  0.459- 173 1.63 122 1.63  67 1.66 152 1.67 251 3.03 269 3.12
 274  0.088  0.625  0.568- 162 1.63 138 1.63 108 1.64 169 1.65 270 3.09 230 3.12 250 3.15
 275  0.353  0.020  0.578- 161 1.64  69 1.66  60 1.70 208 1.70 242 2.38 261 2.74 222 3.13
 276  0.486  0.483  0.572-  77 1.64 133 1.64  85 1.68 127 1.69 253 2.89 234 3.14
 277  0.481  0.495  0.699- 211 1.72   1 1.95 124 1.99  77 2.03 210 2.17 253 3.18

  LATTYP: Found a simple orthorhombic cell.
 ALAT       =    18.1212369514
 B/A-ratio  =     1.2919258579
 C/A-ratio  =     1.4835282260
  
  Lattice vectors:
  
 A1 = (   0.0000000000, -18.1212369514,   0.0000000000)
 A2 = ( -23.4112945954,   0.0000000000,   0.0000000000)
 A3 = (   0.0000000000,   0.0000000000, -26.8833665073)


Analysis of symmetry for initial positions (statically):
=====================================================================
 Subroutine PRICEL returns:
 Original cell was already a primitive cell.
 

 Routine SETGRP: Setting up the symmetry group for a 
 simple orthorhombic supercell.


 Subroutine GETGRP returns: Found  1 space group operations
 (whereof  1 operations were pure point group operations)
 out of a pool of  8 trial point group operations.


The static configuration has the point symmetry C_1 .


Analysis of symmetry for dynamics (positions and initial velocities):
=====================================================================
 Subroutine PRICEL returns:
 Original cell was already a primitive cell.
 

 Routine SETGRP: Setting up the symmetry group for a 
 simple orthorhombic supercell.


 Subroutine GETGRP returns: Found  1 space group operations
 (whereof  1 operations were pure point group operations)
 out of a pool of  8 trial point group operations.


The dynamic configuration has the point symmetry C_1 .


Analysis of constrained symmetry for selective dynamics:
=====================================================================
 Subroutine PRICEL returns:
 Original cell was already a primitive cell.
 

 Routine SETGRP: Setting up the symmetry group for a 
 simple orthorhombic supercell.


 Subroutine GETGRP returns: Found  1 space group operations
 (whereof  1 operations were pure point group operations)
 out of a pool of  8 trial point group operations.


The constrained configuration has the point symmetry C_1 .


 Subroutine INISYM returns: Found  1 space group operations
 (whereof  1 operations are pure point group operations),
 and found     1 'primitive' translations



 KPOINTS: KPOINTS created by Atomic Simulation Env

Automatic generation of k-mesh.
Space group operators:
 irot       det(A)        alpha          n_x          n_y          n_z        tau_x        tau_y        tau_z
    1     1.000000     0.000000     1.000000     0.000000     0.000000     0.000000     0.000000     0.000000
 
 Subroutine IBZKPT returns following result:
 ===========================================
 
 Found      5 irreducible k-points:
 
 Following reciprocal coordinates:
            Coordinates               Weight
  0.000000  0.000000  0.000000      1.000000
  0.333333  0.000000  0.000000      2.000000
  0.000000  0.333333  0.000000      2.000000
  0.333333  0.333333  0.000000      2.000000
 -0.333333  0.333333  0.000000      2.000000
 
 Following cartesian coordinates:
            Coordinates               Weight
  0.000000  0.000000  0.000000      1.000000
  0.014238  0.000000  0.000000      2.000000
  0.000000  0.018395  0.000000      2.000000
  0.014238  0.018395  0.000000      2.000000
 -0.014238  0.018395  0.000000      2.000000
 


--------------------------------------------------------------------------------------------------------




 Dimension of arrays:
   k-points           NKPTS =      5   k-points in BZ     NKDIM =      5   number of bands    NBANDS=    772
   number of dos      NEDOS =    301   number of ions     NIONS =    277
   non local maximal  LDIM  =      6   non local SUM 2l+1 LMDIM =     18
   total plane-waves  NPLWV = ******
   max r-space proj   IRMAX =   2748   max aug-charges    IRDMAX=   9808
   dimension x,y,z NGX =   128 NGY =  100 NGZ =  150
   dimension x,y,z NGXF=   256 NGYF=  200 NGZF=  300
   support grid    NGXF=   256 NGYF=  200 NGZF=  300
   ions per type =               4  52 155  65   1
   NGX,Y,Z   is equivalent  to a cutoff of   9.09,  9.17,  9.28 a.u.
   NGXF,Y,Z  is equivalent  to a cutoff of  18.18, 18.35, 18.55 a.u.

 SYSTEM =  unknown system                          
 POSCAR =   C  H  O Si  W                          

 Startparameter for this run:
   NWRITE =      2    write-flag & timer
   PREC   = normal    normal or accurate (medium, high low for compatibility)
   ISTART =      0    job   : 0-new  1-cont  2-samecut
   ICHARG =      2    charge: 1-file 2-atom 10-const
   ISPIN  =      1    spin polarized calculation?
   LNONCOLLINEAR =      F non collinear calculations
   LSORBIT =      F    spin-orbit coupling
   INIWAV =      1    electr: 0-lowe 1-rand  2-diag
   LASPH  =      T    aspherical Exc in radial PAW
   METAGGA=      F    non-selfconsistent MetaGGA calc.

 Electronic Relaxation 1
   ENCUT  =  500.0 eV  36.75 Ry    6.06 a.u.  42.68 33.04 49.01*2*pi/ulx,y,z
   ENINI  =  500.0     initial cutoff
   ENAUG  =  644.9 eV  augmentation charge cutoff
   NELM   =     60;   NELMIN=  2; NELMDL=  0     # of ELM steps 
   EDIFF  = 0.1E-03   stopping-criterion for ELM
   LREAL  =      T    real-space projection
   NLSPLINE    = F    spline interpolate recip. space projectors
   LCOMPAT=      F    compatible to vasp.4.4
   GGA_COMPAT  = T    GGA compatible to vasp.4.4-vasp.4.6
   LMAXPAW     = -100 max onsite density
   LMAXMIX     =    2 max onsite mixed and CHGCAR
   VOSKOWN=      0    Vosko Wilk Nusair interpolation
   ROPT   =   -0.00050  -0.00050  -0.00050  -0.00050
   ROPT   =   -0.00050
 Ionic relaxation
   EDIFFG = -.5E-01   stopping-criterion for IOM
   NSW    =    200    number of steps for IOM
   NBLOCK =      1;   KBLOCK =    200    inner block; outer block 
   IBRION =      3    ionic relax: 0-MD 1-quasi-New 2-CG
   NFREE  =      0    steps in history (QN), initial steepest desc. (CG)
   ISIF   =      0    stress and relaxation
   IWAVPR =     11    prediction:  0-non 1-charg 2-wave 3-comb
   ISYM   =      2    0-nonsym 1-usesym 2-fastsym
   LCORR  =      T    Harris-Foulkes like correction to forces

   POTIM  = 0.0000    time-step for ionic-motion
   TEIN   =    0.0    initial temperature
   TEBEG  =    0.0;   TEEND  =   0.0 temperature during run
   SMASS  =  -3.00    Nose mass-parameter (am)
   estimated Nose-frequenzy (Omega)   =  0.10E-29 period in steps =  0.00 mass=  -0.125E-25a.u.
   SCALEE = 1.0000    scale energy and forces
   NPACO  =    256;   APACO  = 16.0  distance and # of slots for P.C.
   PSTRESS=    0.0 pullay stress

  Mass of Ions in am
   POMASS =  12.01  1.00 16.00 28.09183.85
  Ionic Valenz
   ZVAL   =   4.00  1.00  6.00  4.00  6.00
  Atomic Wigner-Seitz radii
   RWIGS  =  -1.00 -1.00 -1.00 -1.00 -1.00
  virtual crystal weights 
   VCA    =   1.00  1.00  1.00  1.00  1.00
   NELECT =    1264.0000    total number of electrons
   NUPDOWN=      -1.0000    fix difference up-down

 DOS related values:
   EMIN   =  10.00;   EMAX   =-10.00  energy-range for DOS
   EFERMI =   0.00
   ISMEAR =     0;   SIGMA  =   0.20  broadening in eV -4-tet -1-fermi 0-gaus

 Electronic relaxation 2 (details)
   IALGO  =     68    algorithm
   LDIAG  =      T    sub-space diagonalisation (order eigenvalues)
   LSUBROT=      F    optimize rotation matrix (better conditioning)
   TURBO    =      0    0=normal 1=particle mesh
   IRESTART =      0    0=no restart 2=restart with 2 vectors
   NREBOOT  =      0    no. of reboots
   NMIN     =      0    reboot dimension
   EREF     =   0.00    reference energy to select bands
   IMIX   =      4    mixing-type and parameters
     AMIX     =   0.40;   BMIX     =  1.00
     AMIX_MAG =   1.60;   BMIX_MAG =  1.00
     AMIN     =   0.10
     WC   =   100.;   INIMIX=   1;  MIXPRE=   1;  MAXMIX= -45

 Intra band minimization:
   WEIMIN = 0.0010     energy-eigenvalue tresh-hold
   EBREAK =  0.32E-07  absolut break condition
   DEPER  =   0.30     relativ break condition  

   TIME   =   0.40     timestep for ELM

  volume/ion in A,a.u.               =      41.17       277.85
  Fermi-wavevector in a.u.,A,eV,Ry     =   0.786366  1.486017  8.413461  0.618372
  Thomas-Fermi vector in A             =   1.890890

 Write flags
   LWAVE        =      F    write WAVECAR
   LDOWNSAMPLE  =      F    k-point downsampling of WAVECAR
   LCHARG       =      F    write CHGCAR
   LVTOT        =      F    write LOCPOT, total local potential
   LVHAR        =      F    write LOCPOT, Hartree potential only
   LELF         =      F    write electronic localiz. function (ELF)
   LORBIT       =      0    0 simple, 1 ext, 2 COOP (PROOUT), +10 PAW based schemes


 Dipole corrections
   LMONO  =      F    monopole corrections only (constant potential shift)
   LDIPOL =      T    correct potential (dipole corrections)
   IDIPOL =      3    1-x, 2-y, 3-z, 4-all directions 
   EPSILON=  1.0000000 bulk dielectric constant

 Exchange correlation treatment:
   GGA     =    RP    GGA type
   LEXCH   =     9    internal setting for exchange type
   VOSKOWN=      0    Vosko Wilk Nusair interpolation
   LHFCALC =     F    Hartree Fock is set to
   LHFONE  =     F    Hartree Fock one center treatment
   AEXX    =    0.0000 exact exchange contribution

 Linear response parameters
   LEPSILON=     F    determine dielectric tensor
   LRPA    =     F    only Hartree local field effects (RPA)
   LNABLA  =     F    use nabla operator in PAW spheres
   LVEL    =     F    velocity operator in full k-point grid
   LINTERFAST=   F  fast interpolation
   KINTER  =     0    interpolate to denser k-point grid
   CSHIFT  =0.1000    complex shift for real part using Kramers Kronig
   OMEGAMAX=  -1.0    maximum frequency
   DEG_THRESHOLD= 0.2000000E-02 threshold for treating states as degnerate
   RTIME   =   -0.100 relaxation time in fs
  (WPLASMAI=    0.000 imaginary part of plasma frequency in eV, 0.658/RTIME)
   DFIELD  = 0.0000000 0.0000000 0.0000000 field for delta impulse in time

 Orbital magnetization related:
   ORBITALMAG=     F  switch on orbital magnetization
   LCHIMAG   =     F  perturbation theory with respect to B field
   DQ        =  0.001000  dq finite difference perturbation B field
   LLRAUG    =     F  two centre corrections for induced B field



--------------------------------------------------------------------------------------------------------


 quickmin algorithm: (dynamic with friction)
   using selective dynamics as specified on POSCAR
 charge density and potential will be updated during run
 non-spin polarized calculation
 RMM-DIIS sequential band-by-band and
  variant of blocked Davidson during initial phase
 perform sub-space diagonalisation
    before iterative eigenvector-optimisation
 modified Broyden-mixing scheme, WC =      100.0
 initial mixing is a Kerker type mixing with AMIX =  0.4000 and BMIX =      1.0000
 Hartree-type preconditioning will be used
 using additional bands          140
 real space projection scheme for non local part
 use partial core corrections
 calculate Harris-corrections to forces   (improved forces if not selfconsistent)
 use gradient corrections 
 use of overlap-Matrix (Vanderbilt PP)
 Gauss-broadening in eV      SIGMA  =   0.20


--------------------------------------------------------------------------------------------------------


  energy-cutoff  :      500.00
  volume of cell :    11405.04
      direct lattice vectors                 reciprocal lattice vectors
    23.411294595  0.000000000  0.000000000     0.042714426  0.000000000  0.000000000
     0.000000000 18.121236951  0.000000000     0.000000000  0.055183871  0.000000000
     0.000000000  0.000000000 26.883366507     0.000000000  0.000000000  0.037197722

  length of vectors
    23.411294595 18.121236951 26.883366507     0.042714426  0.055183871  0.037197722



 k-points in units of 2pi/SCALE and weight: KPOINTS created by Atomic Simulation Env
   0.00000000  0.00000000  0.00000000       0.111
   0.01423814  0.00000000  0.00000000       0.222
   0.00000000  0.01839462  0.00000000       0.222
   0.01423814  0.01839462  0.00000000       0.222
  -0.01423814  0.01839462  0.00000000       0.222

 k-points in reciprocal lattice and weights: KPOINTS created by Atomic Simulation Env
   0.00000000  0.00000000  0.00000000       0.111
   0.33333333  0.00000000  0.00000000       0.222
   0.00000000  0.33333333  0.00000000       0.222
   0.33333333  0.33333333  0.00000000       0.222
  -0.33333333  0.33333333  0.00000000       0.222

 position of ions in fractional coordinates (direct lattice) 
   0.52125340  0.54027493  0.75392526
   0.55099833  0.38858362  0.74750849
   0.57626897  0.58355683  0.75106138
   0.54313314  0.32524557  0.78219658
   0.76300499  0.10178285  0.65189984
   0.92642768  0.27866896  0.35633493
   0.79333970  0.20727890  0.37345652
   0.97453911  0.94360860  0.32530279
   0.62573266  0.96347285  0.37523120
   0.82053840  0.99500666  0.36899263
   0.74999307  0.14117876  0.45803819
   0.91544250  0.24945729  0.50926530
   0.58349286  0.30426355  0.30592717
   0.89176759  0.33517084  0.61560015
   0.58457919  0.35600252  0.61628710
   0.59319990  0.87133341  0.57822753
   0.03358958  0.33738816  0.65264207
   0.93527051  0.41951423  0.45410146
   0.74613838  0.53031199  0.42248819
   0.79879543  0.38278171  0.63484697
   0.59110202  0.56868283  0.37803474
   0.71843379  0.64593279  0.38346059
   0.84115291  0.54242660  0.41959617
   0.00476455  0.60379815  0.35777830
   0.82835870  0.71235667  0.46794226
   0.87895334  0.59860499  0.72025738
   0.51999031  0.98556476  0.42170307
   0.22309457  0.98015484  0.39320502
   0.21637369  0.23785146  0.31923033
   0.15750105  0.32980623  0.27898292
   0.34154688  0.15558571  0.33077276
   0.22271586  0.04575893  0.32273843
   0.51113899  0.82535166  0.54667722
   0.37129851  0.23690403  0.64658402
   0.24370282  0.09318266  0.59858551
   0.31538097  0.48713646  0.44243467
   0.40895618  0.43873486  0.40569060
   0.39849950  0.79311361  0.38878680
   0.24420236  0.65543008  0.29432688
   0.31174138  0.41847571  0.36925764
   0.40547429  0.58427965  0.33881989
   0.13935762  0.48797365  0.35192946
   0.59326935  0.69798713  0.35239799
   0.46900683  0.86142747  0.44382838
   0.12359934  0.32408947  0.61397680
   0.07523230  0.66257293  0.64654077
   0.24619646  0.38993723  0.68210899
   0.24614478  0.81435894  0.67019666
   0.50025339  0.54014318  0.79045681
   0.58345170  0.43045014  0.75675843
   0.60302070  0.57645413  0.78449352
   0.60200757  0.57085246  0.71792213
   0.56524347  0.64287389  0.74868425
   0.54756814  0.34320856  0.82109532
   0.50241608  0.29681695  0.77583062
   0.57849271  0.28602435  0.77495286
   0.36894173  0.64835510  0.43900002
   0.34681565  0.50403387  0.42038813
   0.86042169  0.56617323  0.69659423
   0.34837753  0.95894976  0.53051829
   0.03343026  0.93265732  0.52843565
   0.63635548  0.07886855  0.48937667
   0.06864615  0.05226542  0.39511073
   0.45189954  0.12956232  0.42059728
   0.80588415  0.21365018  0.48316661
   0.97312281  0.18157421  0.59879163
   0.27476529  0.29917287  0.44851223
   0.55635417  0.77509129  0.44175101
   0.39151907  0.97413047  0.61935987
   0.17751724  0.34996845  0.40527312
   0.86623712  0.68427877  0.63731922
   0.86569601  0.96717693  0.46703846
   0.30104714  0.76093683  0.45792526
   0.42161095  0.26125222  0.37959630
   0.81071773  0.46571196  0.51992274
   0.98349996  0.07279743  0.52123099
   0.50928959  0.47053072  0.62917524
   0.03453641  0.91994776  0.42940526
   0.96303654  0.30319531  0.35125762
   0.06962669  0.33610577  0.37637178
   0.20829566  0.72864429  0.39536010
   0.03890126  0.41910192  0.49910875
   0.24009917  0.28593512  0.58793384
   0.39774823  0.19580656  0.64468944
   0.45309251  0.56586103  0.57611008
   0.90968754  0.74914577  0.55745186
   0.86912727  0.10804334  0.44227833
   0.57257679  0.66733185  0.37613173
   0.14242656  0.15912550  0.37597224
   0.35018479  0.76616133  0.60659099
   0.91099605  0.84504757  0.48317962
   0.06133801  0.53687171  0.44225348
   0.70833903  0.55516655  0.41995768
   0.07548726  0.81680680  0.48299416
   0.70046477  0.82755572  0.43263529
   0.73018756  0.04919435  0.54293777
   0.91897368  0.30234992  0.63189003
   0.73463196  0.85213449  0.61283204
   0.62512195  0.52739400  0.48637871
   0.55657330  0.62970304  0.46724942
   0.42529174  0.24778541  0.55520014
   0.97829009  0.72824363  0.47679564
   0.65367426  0.59455986  0.63347788
   0.39650290  0.74695031  0.51518576
   0.60269007  0.51766545  0.38567099
   0.71996121  0.63051694  0.55696530
   0.14895508  0.36471229  0.62235773
   0.06610192  0.54847191  0.54189924
   0.81880803  0.88456524  0.53656984
   0.82821553  0.35538514  0.45190334
   0.52731022  0.29801890  0.53221997
   0.73641518  0.49896379  0.59589964
   0.55743394  0.17243111  0.39490854
   0.80596408  0.25641257  0.38329286
   0.23744622  0.95325075  0.50791956
   0.69235185  0.77536917  0.54167048
   0.92381851  0.94978321  0.55296995
   0.52573722  0.31778112  0.39855594
   0.46794914  0.99138405  0.54587131
   0.83766611  0.09480001  0.53974459
   0.53790325  0.11641749  0.48623709
   0.35019344  0.18660873  0.43963639
   0.01176032  0.96241390  0.33524376
   0.45084836  0.58911105  0.67128480
   0.65496522  0.92539750  0.37922825
   0.07629334  0.68602626  0.43588102
   0.45333221  0.40521318  0.55305851
   0.71921944  0.70042085  0.37958300
   0.45107365  0.70590348  0.59999340
   0.75255106  0.70932458  0.47629548
   0.77859671  0.12049655  0.62097042
   0.99327462  0.30801347  0.44840298
   0.53486531  0.50741721  0.53187881
   0.81677759  0.49906173  0.42344221
   0.23582197  0.14523823  0.60532701
   0.20353331  0.83070132  0.47053363
   0.23988435  0.55886483  0.52283037
   0.06115542  0.62546183  0.62367214
   0.04607407  0.60234669  0.35417863
   0.80034473  0.97841102  0.60562372
   0.53799091  0.02769749  0.40450275
   0.60588363  0.31301878  0.60512347
   0.86154611  0.00408085  0.36920633
   0.09491131  0.14902284  0.46708233
   0.17144949  0.20437924  0.53099513
   0.64098865  0.70443872  0.45481558
   0.43678778  0.40976848  0.38641325
   0.57387982  0.05908649  0.57114095
   0.15143775  0.59340802  0.38895836
   0.26773979  0.60233753  0.39230630
   0.44025846  0.32219818  0.47032443
   0.23800967  0.15851113  0.42990119
   0.07275011  0.15024578  0.56253717
   0.84434381  0.54467281  0.59946031
   0.62117943  0.27993988  0.41090545
   0.60266699  0.89152667  0.46722346
   0.03138539  0.19528983  0.38899188
   0.60792057  0.19573912  0.54712799
   0.13279973  0.93835464  0.47948708
   0.08025893  0.28037442  0.51141687
   0.37223596  0.10569711  0.56798793
   0.06670695  0.69666718  0.53552261
   0.66648838  0.41538488  0.43001156
   0.79925029  0.72960482  0.56400979
   0.70383856  0.95720843  0.47018456
   0.59842756  0.63451947  0.55269674
   0.72284030  0.29368465  0.45166811
   0.97762097  0.31412484  0.54721223
   0.15830259  0.62975725  0.57065339
   0.63333384  0.32678308  0.50780070
   0.81964593  0.39650452  0.60506262
   0.95857820  0.02724304  0.41695300
   0.28200405  0.19505300  0.51859909
   0.24925755  0.44303289  0.46105570
   0.27190213  0.85053246  0.56924883
   0.20366815  0.68557317  0.48688872
   0.14712345  0.47606988  0.49254493
   0.22431458  0.42246148  0.55660780
   0.91141698  0.45274460  0.47371881
   0.86978818  0.70456011  0.46415352
   0.73812021  0.09283462  0.44522965
   0.22218344  0.92978119  0.40794682
   0.25562977  0.40305488  0.64816449
   0.63043499  0.88330934  0.59339316
   0.41022327  0.78906239  0.42343739
   0.91777135  0.19603829  0.50824515
   0.13254706  0.44353611  0.33227266
   0.15514768  0.30352326  0.31056042
   0.37300515  0.13090704  0.34795342
   0.03461237  0.29197817  0.63349946
   0.57268926  0.25686819  0.32009968
   0.24465270  0.77004101  0.64999215
   0.20737430  0.64840505  0.31036906
   0.27537441  0.39219130  0.36737583
   0.36535081  0.59758663  0.34222079
   0.22638085  0.05618082  0.35811888
   0.24120334  0.19607823  0.32934297
   0.50127293  0.89230162  0.45484168
   0.55008636  0.82802554  0.53432342
   0.54348548  0.64462205  0.63358957
   0.47813820  0.12288330  0.59630495
   0.26213831  0.69491520  0.56853670
   0.44191049  0.84827616  0.58102661
   0.76507867  0.61708823  0.64956755
   0.84461033  0.83177230  0.62284750
   0.63821317  0.73949449  0.62103970
   0.00811720  0.03343742  0.60297657
   0.28400614  0.00324811  0.59339516
   0.50290147  0.97240699  0.62830314
   0.52615261  0.39072384  0.70547700
   0.41982454  0.46215838  0.72681367
   0.08322528  0.60642030  0.40641308
   0.40894581  0.76601604  0.57457403
   0.84176382  0.44145312  0.46783897
   0.01708949  0.99048204  0.39361135
   0.01470021  0.28419027  0.39108141
   0.00922364  0.11505535  0.57252104
   0.60791208  0.65710543  0.61081505
   0.21400575  0.47599171  0.50975592
   0.91506213  0.75556094  0.49625454
   0.52057854  0.11045563  0.42598659
   0.41836666  0.17031575  0.58889350
   0.08345253  0.13917208  0.40698087
   0.70189793  0.04484625  0.48732303
   0.66505935  0.89803746  0.43747644
   0.65009874  0.50402706  0.43015089
   0.19846065  0.91248223  0.46399069
   0.21587102  0.36705677  0.60402690
   0.67283362  0.81281971  0.59474168
   0.21666810  0.64176507  0.53861544
   0.36878912  0.73512773  0.45920930
   0.79691255  0.88807826  0.59555075
   0.87972465  0.91222277  0.51204212
   0.57629519  0.57441087  0.51208745
   0.58989020  0.11572473  0.52518485
   0.85812234  0.15211323  0.49517595
   0.83504079  0.60388279  0.64580147
   0.13373852  0.36031890  0.35687228
   0.79065529  0.27993925  0.44187265
   0.39917610  0.17749484  0.39600320
   0.85583687  0.75014483  0.59645360
   0.28269387  0.93507298  0.54988192
   0.02307473  0.33044751  0.50224551
   0.57455938  0.69549008  0.43556436
   0.23024095  0.75260050  0.45196954
   0.59354399  0.28423433  0.54823150
   0.97528251  0.27234568  0.60264646
   0.88890636  0.02540900  0.42420019
   0.10474079  0.19551325  0.51778401
   0.04814566  0.73303709  0.48263019
   0.23202319  0.20597161  0.56108003
   0.56140781  0.25778527  0.38122611
   0.47464507  0.62575070  0.61994691
   0.28105087  0.77079707  0.59796525
   0.20850083  0.64339984  0.37179454
   0.74023930  0.71034136  0.53587083
   0.98652450  0.99062655  0.55035597
   0.70310456  0.73681815  0.43426040
   0.78788747  0.05921220  0.57675471
   0.45631390  0.32845159  0.40928789
   0.44903182  0.93682428  0.59404405
   0.50814734  0.04167580  0.58591297
   0.24424715  0.37040632  0.42094710
   0.65852534  0.33000211  0.45034791
   0.46026646  0.31925473  0.52909487
   0.33729937  0.58994254  0.39908301
   0.80274291  0.47674360  0.57961568
   0.06920979  0.89885916  0.48050551
   0.21190758  0.14445432  0.37359659
   0.07823286  0.49398500  0.49468762
   0.55757019  0.85234010  0.47473025
   0.71786446  0.58472951  0.60967490
   0.28664212  0.21010174  0.45911077
   0.08815764  0.62536578  0.56762291
   0.35302466  0.02022016  0.57800135
   0.48558531  0.48348779  0.57240345
   0.48059060  0.49474563  0.69859520

 position of ions in cartesian coordinates  (Angst):
  12.20321691  9.79045009 20.26804910
  12.89958421  7.04161593 20.09554459
  13.49120252 10.57477167 20.19105844
  12.71544996  5.89385205 21.02807723
  17.86293450  1.84443108 17.52526244
  21.68887124  5.04982631  9.57948250
  18.57310935  3.75615001 10.03976840
  22.81522226 17.09935504  8.74523415
  14.64921175 17.45931981 10.08747787
  19.20986618 18.03075152  9.91976410
  17.55830880  2.55833369 12.31360861
  21.43169407  4.52047465 13.69076561
  13.66032332  5.51363182  8.22435231
  20.87743365  6.07371013 16.54940447
  13.68575567  6.45120598 16.56787210
  13.88757766 15.78963922 15.54470262
   0.78637558  6.11389071 17.54521606
  21.89589338  7.60211669 12.20777585
  17.46806539  9.60990927 11.35790489
  18.70083521  6.93647804 17.06682390
  13.83846347 10.30523625 10.16284657
  16.81946503 11.70510107 10.30871170
  19.69247867  9.82944088 11.28015755
   0.11154425 10.94156933  9.61828518
  19.39294954 12.90878407 12.57986315
  20.57743561 10.84746286 19.36294308
  12.17364643 17.85965258 11.33679820
   5.22293275 17.76161802 10.57067472
   5.06558822  4.31016263  8.58198589
   3.68730349  5.97649684  7.50000000
   7.99605455  2.81940544  8.89228530
   5.21406665  0.82920834  8.67629559
  11.96642555 14.95639295 14.69652413
   8.69257885  4.29299400 17.38235528
   5.70539841  1.68858514 16.09199375
   7.38347683  8.82751530 11.89413327
   9.57419369  7.95041833 10.90632902
   9.32938927 14.37219961 10.45189795
   5.71709332 11.87720376  7.91249741
   7.29826932  7.58329756  9.92688859
   9.49267817 10.58787005  9.10861924
   3.26254231  8.84268608  9.46104865
  13.88920341 12.64839014  9.47364424
  10.98005707 15.61013129 11.93160111
   2.89362066  5.87290204 16.50576321
   1.76128545 12.00664102 17.38119250
   5.76377793  7.06614498 18.33738601
   5.76256797 14.75719134 18.01714232
  11.71157953  9.78806250 21.25014023
  13.65935972  7.80028905 20.34421427
  14.11749528 10.44606194 21.08982669
  14.09377650 10.34455273 19.30016381
  13.23308142 11.64967011 20.12715321
  12.81927911  6.21936369 22.07380638
  11.76221094  5.37869022 20.85693882
  13.54326330  5.18311506 20.83334166
   8.63740362 11.74899635 11.80179838
   8.11940335  9.13371715 11.30144811
  20.14358576 10.25975927 18.72679809
   8.15596891 17.37735575 14.26211755
   0.78264572 16.90090425 14.20612922
  14.89790566  1.42919560 13.15609244
   1.60709516  0.94711409 10.62190669
  10.57955332  2.34782959 11.30707087
  18.86679123  3.87160553 12.98914499
  22.78206472  3.29034932 16.09753491
   6.43261122  5.42138249 12.05751853
  13.02497128 14.04561295 11.87575437
   9.16596821 17.65244900 16.65047835
   4.15590840  6.34186120 10.89510594
  20.27973234 12.39997764 17.13328630
  20.26706433 17.52644236 12.55556607
   7.04790320 13.78911669 12.31057251
   9.87045805  4.73421333 10.20482654
  18.97995158  8.43927683 13.97727366
  23.02500724  1.31917940 14.01244371
  11.92312868  8.52659865 16.91434864
   0.80854198 16.67059137 11.54385891
  22.54593219  5.49427402  9.44298747
   1.63005096  6.09065222 10.11814055
   4.87647100 13.20393591 10.62861051
   0.91072893  7.59464512 13.41772355
   5.62103233  5.18149813 15.80564103
   9.31180094  3.54825707 17.33142239
  10.60748217 10.25410189 15.48777846
  21.29696290 13.57544809 14.98618269
  20.34739459  1.95787901 11.88993046
  13.40476402 12.09287863 10.11168720
   3.33439013  2.88355087 10.10739962
   8.19827930 13.88379094 16.30720794
  21.32759690 15.31330728 12.98949491
   1.43600223  9.72877939 11.88926245
  16.58313365 10.06030463 11.28987623
   1.76725442 14.80154966 12.98450890
  16.39878711 14.99633320 11.63069310
  17.09463617  0.89146247 14.59599497
  21.51436351  5.47895454 16.98733131
  17.19868516 15.44173098 16.47498833
  14.63491423  9.55703168 13.07549710
  13.03010146 11.41099800 12.56123752
   9.95663031  4.49017809 14.92564879
  22.90303759 13.19667544 12.81787194
  15.30336067 10.77416004 17.03001796
   9.28264615 13.53566350 13.84992756
  14.10975474  9.38073831 10.36813464
  16.85522400 11.42574688 14.97310219
   3.48723126  6.60903785 16.73107086
   1.54753150  9.93898947 14.56807592
  19.16935595 16.02941639 14.42480374
  19.38959778  6.44001838 12.14868300
  12.34501485  5.40047102 14.30786447
  17.24043263  9.04184106 16.01978836
  13.05025010  3.12466491 10.61647095
  18.86866258  4.64651295 10.30420244
   5.55892333 17.27408272 13.65458756
  16.20885322 14.05064841 14.56192615
  21.62778737 17.21124667 14.86569381
  12.30818899  5.75858697 10.71452528
  10.95529512 17.96510519 14.67485837
  19.61084815  1.71789348 14.51015154
  12.59301152  2.10962891 13.07168996
   8.19848185  3.38158106 11.81890631
   0.27532438 17.44013033  9.01248080
  10.55494383 10.67542089 18.04639522
  15.33358375 16.76934745 10.19493214
   1.78612593 12.43164437 11.71794928
  10.61309387  7.34296405 14.86807453
  16.83785811 12.69249221 10.20446890
  10.56021810 12.79184414 16.12984236
  17.61819454 12.85383871 12.80442605
  18.22795686  2.18354660 16.69377531
  23.25384464  5.58158514 12.05458163
  12.52188942  9.19502758 14.29869299
  19.12182067  9.04361594 11.38355200
   5.52089750  2.63189637 16.27322792
   4.76497818 15.05333538 12.64952801
   5.61600314 10.12732198 14.05544035
   1.43172763 11.33414196 16.76640660
   1.07865368 10.91526714  9.52151395
  18.73710632 17.73001787 16.28120454
  12.59506368  0.50191281 10.87439573
  14.18452005  5.67228756 16.26775592
  20.16990973  0.07395004  9.92550906
   2.22199659  2.70047811 12.55674536
   4.01385453  3.70360461 14.27493680
  15.00637423 12.76530097 12.22697399
  10.22576747  7.42551174 10.38808912
  13.43526956  1.07072033 15.35419141
   3.54535369 10.75328740 10.45651017
   6.26813510 10.91510113 10.54651395
  10.30702051  5.83862961 12.64390410
   5.57211440  2.87241773 11.55719116
   1.70317419  2.72263938 15.12289279
  19.76718179  9.87014500 16.11551125
  14.54261460  5.07285684 11.04652184
  14.10921452 16.15556596 12.56053950
   0.73477264  3.53889327 10.45741115
  14.23220765  3.54703501 14.70864234
   3.10901352 17.00414686 12.89022683
   1.87896542  5.08073122 13.74860712
   8.71452565  1.91536242 15.26942768
   1.56169598 12.62447110 14.39665059
  15.60335582  7.52728779 11.56015827
  18.71148389 13.22134187 15.16248178
  16.47777184 17.34580083 12.64014391
  14.00996401 11.49827759 14.85834912
  16.92262721  5.32192921 12.14235921
  22.88737248  5.69233067 14.71090686
   3.70606853 11.41198041 15.34108416
  14.82716522  5.92171361 13.65139239
  19.18897244  7.18515235 16.26612015
  22.44155659  0.49367766 11.20910044
   6.60208000  3.53460163 13.94168939
   5.83544193  8.02830396 12.39472924
   6.36558081 15.41270021 15.30332482
   4.76813504 12.42343385 13.08920785
   3.44435051  8.62697504 13.24126574
   5.25149461  7.65552467 14.96349158
  21.33745138  8.20429214 12.73515651
  20.36286723 12.76750071 12.47800922
  17.28034963  1.68227812 11.96927179
   5.20160189 16.84878525 10.96698378
   5.98462394  7.30385302 17.42484356
  14.75929936 16.00665778 15.95240584
   9.60385771 14.29878658 11.38342242
  21.48621551  3.55245637 13.66334053
   3.10309823  8.03742302  8.93260776
   3.63220806  5.50021683  8.34890949
   8.73253334  2.37219755  9.35415932
   0.81032039  5.29100567 17.03059804
  13.40739700  4.65476936  8.60535697
   5.72763652 13.95409564 17.47397712
   4.85490080 11.74990155  8.34376522
   6.44687148  7.10699146  9.87629901
   8.55333550 10.82900896  9.20004704
   5.29986878  1.01806603  9.62744117
   5.64688233  3.55318002  8.85384768
  11.73544815 16.16960912 12.22767567
  12.87823374 15.00484702 14.36441229
  12.72369871 11.68134898 17.03302052
  11.19383419  2.22679734 16.03068440
   6.13699710 12.59272294 15.28418055
  10.34569662 15.37181334 15.61995118
  17.91148211 11.18240201 17.46256264
  19.77342134 15.07274298 16.74423775
  14.94139650 13.40055496 16.69563786
   0.19003411  0.60592736 16.21004006
   6.64895131  0.05885975 15.95245957
  11.77357457 17.62121744 16.89090357
  12.31791373  7.08039928 18.96559665
   9.82863600  8.37488150 19.53919830
   1.94841153 10.98908596 10.92575188
   9.57395088 13.88115821 15.44648422
  19.70678075  7.99967650 12.57708649
   0.40008717 17.94875972 10.58159830
   0.34415087  5.14987929 10.51358498
   0.21593740  2.08494519 15.39129289
  14.23200870 11.90756312 16.42076496
   5.01015158  8.62555850 13.70395514
  21.42278905 13.69169878 13.34099278
  12.18741762  2.00159257 11.45195358
   9.79450510  3.08633214 15.83143973
   1.95373172  2.52197018 10.94101594
  16.43233932  0.81266960 13.10088356
  15.56990048 16.27354967 11.76083937
  15.21965321  9.13359373 11.56390395
   4.64622069 16.53530673 12.47363180
   5.05382016  6.65152264 16.23827649
  15.75190612 14.72929858 15.98865852
   5.07248069 11.62957685 14.47979639
   8.63383069 13.32142384 12.34509184
  18.65675441 16.09307662 16.01040922
  20.59549304 16.53060495 13.76541610
  13.49181648 10.40903543 13.76663456
  13.81009336  2.09707523 14.11873684
  20.08975493  2.75647993 13.31199648
  19.54938602 10.94310312 17.36131764
   3.13099191  6.52942423  9.59392828
  18.51026388  5.07284540 11.87902451
   9.34522920  3.21642612 10.64589911
  20.03624913 13.59355213 16.03468076
   6.61822943 16.94467912 14.78267728
   0.54020936  5.98811771 13.50205012
  13.45117902 12.60314055 11.70943634
   5.39023881 13.63805193 12.15046292
  13.89563311  5.15067761 14.73830829
  22.83262621  4.93524056 16.20116568
  20.81044864  0.46044249 11.40392910
   2.45211748  3.54294190 13.91977731
   1.12715225 13.28353886 12.97472440
   5.43196326  3.73246038 15.08372004
  13.14328356  4.67138795 10.24864117
  11.11205554 11.33937668 16.66626013
   6.57976481 13.96779628 16.07531891
   4.88127424 11.65920104  9.99508876
  17.32996034 12.87226416 14.40601182
  23.09581560 17.95137852 14.79542119
  16.46058793 13.35205634 11.67438144
  18.44546575  1.07299834 15.50510830
  10.68289909  5.95194918 11.00303640
  10.51241616 16.97641484 15.96990382
  11.89638697  0.75521703 15.75131305
   5.71814202  6.71222076 11.31647527
  15.41693082  5.98004644 12.10686792
  10.77543368  5.78529061 14.22385125
   7.89661487 10.69048859 10.72869482
  18.79325064  8.63918367 15.58202081
   1.62029077 16.28843975 12.91760565
   4.96103076  2.61769098 10.04353415
   1.83153245  8.95161915 13.29886860
  13.05343995 15.44545689 12.76234739
  16.80613645 10.59602206 16.39011374
   6.71066321  3.80730339 12.34244318
   2.06388450 11.33240151 15.25961486
   8.26476424  0.36641429 15.53862222
  11.36818070  8.76139679 15.38813171
  11.25124805  8.96540287 18.78059071



--------------------------------------------------------------------------------------------------------


 k-point  1 :   0.0000 0.0000 0.0000  plane waves:  289505
 k-point  2 :   0.3333 0.0000 0.0000  plane waves:  289422
 k-point  3 :   0.0000 0.3333 0.0000  plane waves:  289550
 k-point  4 :   0.3333 0.3333 0.0000  plane waves:  289551
 k-point  5 :  -0.3333 0.3333 0.0000  plane waves:  289551

 maximum and minimum number of plane-waves per node :     72451    72309

 maximum number of plane-waves:    289551
 maximum index in each direction: 
   IXMAX=   43   IYMAX=   33   IZMAX=   49
   IXMIN=  -43   IYMIN=  -33   IZMIN=  -49


 real space projection operators:
  total allocation   :      13826.45 KBytes
  max/ min on nodes  :       3460.41       3452.22


 parallel 3D FFT for wavefunctions:
    minimum data exchange during FFTs selected (reduces bandwidth)
 parallel 3D FFT for charge:
    minimum data exchange during FFTs selected (reduces bandwidth)


 total amount of memory used by VASP MPI-rank0  2555025. kBytes
=======================================================================

   base      :      30000. kBytes
   nonlr-proj:      16941. kBytes
   fftplans  :      79581. kBytes
   grid      :     173670. kBytes
   one-center:       1088. kBytes
   wavefun   :    2253745. kBytes

     INWAV:  cpu time    0.0001: real time    0.0001
 Broyden mixing: mesh for mixing (old mesh)
   NGX = 85   NGY = 67   NGZ = 99
  (NGX  =256   NGY  =200   NGZ  =300)
  gives a total of 563805 points

 initial charge density was supplied:
 charge density of overlapping atoms calculated
 number of electron    1264.0000000 magnetization 
 keeping initial charge density in first step


--------------------------------------------------------------------------------------------------------


 Maximum index for non-local projection operator          663
 Maximum index for augmentation-charges         1121 (set IRDMAX)


--------------------------------------------------------------------------------------------------------


 First call to EWALD:  gamma=   0.079
 Maximum number of real-space cells 3x 3x 2
 Maximum number of reciprocal cells 3x 2x 3

    FEWALD:  cpu time    0.0959: real time    0.0962


--------------------------------------- Iteration      1(   1)  ---------------------------------------


    POTLOK:  cpu time    1.0214: real time    1.0262
    SETDIJ:  cpu time    1.9860: real time    1.9928
     EDDAV:  cpu time  352.0428: real time  353.2989
       DOS:  cpu time    0.0053: real time    0.0054
    --------------------------------------------
      LOOP:  cpu time  355.0556: real time  356.3233

 eigenvalue-minimisations  :  8704
 total energy-change (2. order) : 0.1313608E+05  (-0.5077488E+05)
 number of electron    1264.0000000 magnetization 
 augmentation part     1264.0000000 magnetization 

 DIPCOR: dipole corrections for dipol
 direction  3 min pos    79,
 dipolmoment           0.000000      0.000000     10.611198 electrons x Angstroem
 Tr[quadrupol]    -96312.655709

 energy correction for charged system         0.000000 eV
 dipol+quadrupol energy correction           -0.915474 eV
 added-field ion interaction       1494.998559 eV  (added to PSCEN)


 Free energy of the ion-electron system (eV)
  ---------------------------------------------------
  alpha Z        PSCENC =      1989.15053613
  Ewald energy   TEWEN  =    309598.54471602
  -Hartree energ DENC   =   -372209.90789301
  -exchange      EXHF   =         0.00000000
  -V(xc)+E(xc)   XCENC  =      3805.24588998
  PAW double counting   =     60302.38778424   -59321.72876092
  entropy T*S    EENTRO =        -1.58989399
  eigenvalues    EBANDS =     -6165.56524168
  atomic energy  EATOM  =     75139.53829012
  Solvation  Ediel_sol  =         0.00000000
  ---------------------------------------------------
  free energy    TOTEN  =     13136.07542690 eV

  energy without entropy =    13137.66532089  energy(sigma->0) =    13136.87037389


--------------------------------------------------------------------------------------------------------




--------------------------------------- Iteration      1(   2)  ---------------------------------------


     EDDAV:  cpu time  414.1742: real time  415.6632
       DOS:  cpu time    0.0030: real time    0.0030
    --------------------------------------------
      LOOP:  cpu time  414.1772: real time  415.6662

 eigenvalue-minimisations  : 10608
 total energy-change (2. order) :-0.1254454E+05  (-0.1215205E+05)
 number of electron    1264.0000000 magnetization 
 augmentation part     1264.0000000 magnetization 

 DIPCOR: dipole corrections for dipol
 direction  3 min pos    79,
 dipolmoment           0.000000      0.000000     10.611198 electrons x Angstroem
 Tr[quadrupol]    -96312.655709

 energy correction for charged system         0.000000 eV
 dipol+quadrupol energy correction           -0.915474 eV
 added-field ion interaction       1494.998559 eV  (added to PSCEN)


 Free energy of the ion-electron system (eV)
  ---------------------------------------------------
  alpha Z        PSCENC =      1989.15053613
  Ewald energy   TEWEN  =    309598.54471602
  -Hartree energ DENC   =   -372209.90789301
  -exchange      EXHF   =         0.00000000
  -V(xc)+E(xc)   XCENC  =      3805.24588998
  PAW double counting   =     60302.38778424   -59321.72876092
  entropy T*S    EENTRO =        -0.00000000
  eigenvalues    EBANDS =    -18711.69796456
  atomic energy  EATOM  =     75139.53829012
  Solvation  Ediel_sol  =         0.00000000
  ---------------------------------------------------
  free energy    TOTEN  =       591.53259801 eV

  energy without entropy =      591.53259801  energy(sigma->0) =      591.53259801


--------------------------------------------------------------------------------------------------------




--------------------------------------- Iteration      1(   3)  ---------------------------------------


     EDDAV:  cpu time  362.7606: real time  364.0783
       DOS:  cpu time    0.0031: real time    0.0031
    --------------------------------------------
      LOOP:  cpu time  362.7638: real time  364.0814

 eigenvalue-minimisations  :  9008
 total energy-change (2. order) :-0.2610417E+04  (-0.2598358E+04)
 number of electron    1264.0000000 magnetization 
 augmentation part     1264.0000000 magnetization 

 DIPCOR: dipole corrections for dipol
 direction  3 min pos    79,
 dipolmoment           0.000000      0.000000     10.611198 electrons x Angstroem
 Tr[quadrupol]    -96312.655709

[...]
      6.64895      0.05886     15.95246         0.009125     -0.009349      0.009513
     11.77357     17.62122     16.89090         0.008875      0.010417      0.001633
     12.31791      7.08040     18.96560         0.015422      0.004378     -0.007093
      9.82864      8.37488     19.53920         0.011476      0.006175     -0.024431
      1.94841     10.98909     10.92575        -0.050391     -0.135225      0.118329
      9.57395     13.88116     15.44648         0.004067     -0.010700     -0.005602
     19.70678      7.99968     12.57709         0.061461     -0.121641     -0.244437
      0.40009     17.94876     10.58160         0.104657     -0.147852      0.388909
      0.34415      5.14988     10.51358         0.052089      0.037365      0.140339
      0.21594      2.08495     15.39129         0.006936     -0.001412     -0.004963
     14.23201     11.90756     16.42076         0.004280      0.010291     -0.004176
      5.01015      8.62556     13.70396         0.000480     -0.002145     -0.001628
     21.42279     13.69170     13.34099         0.188802      0.233199     -0.620090
     12.18742      2.00159     11.45195         0.164633     -0.069397      0.547215
      9.79451      3.08633     15.83144        -0.009236      0.005344     -0.003878
      1.95373      2.52197     10.94102         0.083134     -0.113869      0.132160
     16.43234      0.81267     13.10088         0.045991     -0.075445     -0.313552
     15.56990     16.27355     11.76084        -0.496514      4.524137     -0.151591
     15.21965      9.13359     11.56390         0.006346      0.096451      0.394612
      4.64622     16.53531     12.47363        -0.682101      6.163522     -0.272177
      5.05382      6.65152     16.23828         0.003518     -0.005917     -0.003243
     15.75191     14.72930     15.98866        -0.003589     -0.004482     -0.005688
      5.07248     11.62958     14.47980         0.010325     -0.003513     -0.007185
      8.63383     13.32142     12.34509        -0.321883     -0.013486      0.047130
     18.65675     16.09308     16.01041         0.006871      0.005763     -0.009025
     20.59549     16.53060     13.76542         0.013268      0.000036     -0.012388
     13.49182     10.40904     13.76663         0.015245      0.015435     -0.012391
     13.81009      2.09708     14.11874        -0.000199     -0.011423     -0.009145
     20.08975      2.75648     13.31200        -0.186945     -0.018593     -0.403308
     19.54939     10.94310     17.36132        -0.008687     -0.005154      0.000554
      3.13099      6.52942      9.59393        -0.075030     -0.130633      0.120653
     18.51026      5.07285     11.87902        -0.302422      0.114918      0.133132
      9.34523      3.21643     10.64590        -0.122032     -0.284515      0.309471
     20.03625     13.59355     16.03468        -0.000299     -0.001591     -0.004361
      6.61823     16.94468     14.78268         0.006654      0.012537      0.002778
      0.54021      5.98812     13.50205         0.339990      0.207620     -0.405775
     13.45118     12.60314     11.70944         3.866096     -0.959269     -2.329805
      5.39024     13.63805     12.15046         0.180627     -0.599072      0.081731
     13.89563      5.15068     14.73831        -0.010671     -0.009567     -0.004232
     22.83263      4.93524     16.20117         0.001539      0.004400      0.007312
     20.81045      0.46044     11.40393         0.013479      0.035795      0.186605
      2.45212      3.54294     13.91978         0.002697      0.008727      0.000043
      1.12715     13.28354     12.97472        -0.135260     -0.575902     -0.234600
      5.43196      3.73246     15.08372         0.001971     -0.003241      0.001473
     13.14328      4.67139     10.24864         8.338134     -5.334894     -3.483290
     11.11206     11.33938     16.66626         0.009800      0.010759      0.007759
      6.57976     13.96780     16.07532         0.008058     -0.000125     -0.007420
      4.88127     11.65920      9.99509         0.096956     -0.054676      0.100756
     17.32996     12.87226     14.40601        -0.004514      0.000843     -0.002690
     23.09582     17.95138     14.79542        -0.004469      0.003987      0.003215
     16.46059     13.35206     11.67438        -0.738000     -1.386229      0.423556
     18.44547      1.07300     15.50511        -0.000847      0.014540     -0.013235
     10.68290      5.95195     11.00304        -1.164332      0.570900      0.603391
     10.51242     16.97641     15.96990        -0.002442      0.007444      0.005982
     11.89639      0.75522     15.75131        -0.004043      0.005312     -0.003798
      5.71814      6.71222     11.31648         0.040578     -0.102343     -0.032294
     15.41693      5.98005     12.10687        -0.181641     -0.422369     -0.753628
     10.77543      5.78529     14.22385        -0.010541     -0.010093     -0.002124
      7.89661     10.69049     10.72869        -0.091917     -0.053035      0.057681
     18.79325      8.63918     15.58202         0.003264     -0.006662     -0.004823
      1.62029     16.28844     12.91761        -0.299330      6.430891     -0.518324
      4.96103      2.61769     10.04353        -0.066239     -0.030790      0.138976
      1.83153      8.95162     13.29887         0.051755     -0.149915     -0.297972
     13.05344     15.44546     12.76235       -22.344440    -15.876115      4.761372
     16.80614     10.59602     16.39011        -0.007990     -0.004586     -0.005990
      6.71066      3.80730     12.34244        -0.202658      0.018062     -0.726177
      2.06388     11.33240     15.25961         0.007954      0.000010      0.001732
      8.26476      0.36641     15.53862        -0.003132      0.000127     -0.009929
     11.36818      8.76140     15.38813         0.005316     -0.000366     -0.006258
     11.25125      8.96540     18.78059        -0.004210      0.004758      0.008698
 -----------------------------------------------------------------------------------
    total drift:                                0.231928      0.402969      0.640380


--------------------------------------------------------------------------------------------------------



  FREE ENERGIE OF THE ION-ELECTRON SYSTEM (eV)
  ---------------------------------------------------
  free  energy   TOTEN  =     -1893.23106970 eV

  energy  without entropy=    -1893.23106970  energy(sigma->0) =    -1893.23106970



--------------------------------------------------------------------------------------------------------


    POTLOK:  cpu time    2.9768: real time    2.9869


--------------------------------------------------------------------------------------------------------


 NEB: the previous image is higher in energy: F
 NEB: the next image is higher in energy    : F
 NEB: image is at an extrema
 NEB: diff energy (min, max):     0.128370    0.304006

 NEB: Tangent
 ----------------------------------------------
     -0.04784      0.09922     -0.05928
     -0.10707     -0.21208      0.02285
     -0.01710      0.05274     -0.06080
      0.09369     -0.30957     -0.12263
      0.00687     -0.00279      0.00235
      0.00000      0.00000      0.00000
      0.00000      0.00000      0.00000
      0.00000      0.00000      0.00000
      0.00000      0.00000      0.00000
      0.00000      0.00000      0.00000
      0.00000      0.00000      0.00000
     -0.00012     -0.00005      0.00117
      0.00000      0.00000      0.00000
      0.00046     -0.00071     -0.00120
      0.04785      0.05025     -0.05051
      0.00372     -0.00271     -0.00233
      0.00048     -0.00058      0.00140
      0.00000      0.00000      0.00000
      0.00000      0.00000      0.00000
      0.01242      0.00514      0.00866
      0.00000      0.00000      0.00000
      0.00000      0.00000      0.00000
      0.00000      0.00000      0.00000
      0.00000      0.00000      0.00000
      0.00000      0.00000      0.00000
     -0.00319     -0.00097      0.00381
      0.00000      0.00000      0.00000
      0.00000      0.00000      0.00000
      0.00000      0.00000      0.00000
      0.00000      0.00000      0.00000
      0.00000      0.00000      0.00000
      0.00000      0.00000      0.00000
      0.00458     -0.00159      0.00406
     -0.00730      0.00166      0.01310
     -0.00569      0.00186      0.00117
      0.00000      0.00000      0.00000
      0.00000      0.00000      0.00000
      0.00000      0.00000      0.00000
      0.00000      0.00000      0.00000
      0.00000      0.00000      0.00000
      0.00000      0.00000      0.00000
      0.00000      0.00000      0.00000
      0.00000      0.00000      0.00000
      0.00000      0.00000      0.00000
      0.00189      0.00100      0.00305
      0.00234     -0.00085      0.00132
      0.00014      0.00932      0.00085
      0.01757      0.00233     -0.00158
     -0.01715      0.08700     -0.04281
     -0.24041     -0.09050      0.11529
     -0.01727      0.00064     -0.06763
     -0.03061      0.03922     -0.06523
      0.03742      0.06722     -0.03256
      0.05141     -0.37305     -0.10190
      0.17135     -0.41121     -0.17162
      0.18823     -0.15508     -0.15432
      0.00000      0.00000      0.00000
      0.00000      0.00000      0.00000
      0.00349     -0.00150      0.00000
      0.00302      0.01998     -0.00364
      0.00002      0.00027     -0.00005
      0.00000      0.00000      0.00000
      0.00000      0.00000      0.00000
      0.00000      0.00000      0.00000
      0.00000      0.00000      0.00000
     -0.00016     -0.00013      0.00007
      0.00000      0.00000      0.00000
      0.00000      0.00000      0.00000
     -0.00643      0.01491      0.00163
      0.00000      0.00000      0.00000
      0.00262     -0.00174     -0.00059
      0.00000      0.00000      0.00000
      0.00000      0.00000      0.00000
      0.00000      0.00000      0.00000
      0.00141     -0.00219      0.00084
     -0.00054     -0.00002      0.00007
     -0.04584      0.01036      0.04894
      0.00000      0.00000      0.00000
      0.00000      0.00000      0.00000
      0.00000      0.00000      0.00000
      0.00000      0.00000      0.00000
      0.00000      0.00000      0.00000
     -0.00101      0.00241     -0.00257
     -0.00218      0.00615      0.00873
      0.02620      0.01566     -0.01611
      0.00107      0.00052      0.00027
      0.00000      0.00000      0.00000
      0.00000      0.00000      0.00000
      0.00000      0.00000      0.00000
      0.01464     -0.01009      0.00116
      0.00000      0.00000      0.00000
      0.00000      0.00000      0.00000
      0.00000      0.00000      0.00000
      0.00000      0.00000      0.00000
      0.00000      0.00000      0.00000
      0.00057      0.00026     -0.00024
      0.00000     -0.00076     -0.00004
      0.00343      0.00600      0.00109
      0.00000      0.00000      0.00000
      0.00000      0.00000      0.00000
     -0.00160      0.01497      0.01113
      0.00000      0.00000      0.00000
      0.00260     -0.00228     -0.00383
     -0.00862      0.01629     -0.00534
      0.00000      0.00000      0.00000
      0.00543     -0.00273     -0.00046
      0.00168      0.00046      0.00500
      0.00481      0.00154     -0.00001
      0.00051      0.00049      0.00036
      0.00000      0.00000      0.00000
     -0.00024     -0.00406     -0.01019
      0.00353     -0.00299      0.00015
      0.00000      0.00000      0.00000
      0.00000      0.00000      0.00000
      0.00000      0.00000      0.00000
      0.00444      0.00187      0.00056
      0.00043     -0.00009     -0.00001
      0.00000      0.00000      0.00000
     -0.00617      0.02661      0.00376
     -0.00042      0.00063     -0.00029
      0.00000      0.00000      0.00000
      0.00000      0.00000      0.00000
      0.00000      0.00000      0.00000
     -0.07042      0.10852     -0.03370
      0.00000      0.00000      0.00000
      0.00000      0.00000      0.00000
      0.01836      0.00755      0.00510
      0.00000      0.00000      0.00000
      0.04293      0.03715     -0.05772
      0.00000      0.00000      0.00000
     -0.00164      0.00031     -0.00001
      0.00000      0.00000      0.00000
      0.04186     -0.00974      0.04461
      0.00000      0.00000      0.00000
      0.00209      0.00319      0.00157
      0.00000      0.00000      0.00000
      0.00114      0.00090      0.00001
      0.00178      0.00110     -0.00041
      0.00000      0.00000      0.00000
      0.00371      0.00127      0.00092
      0.00000      0.00000      0.00000
     -0.01708     -0.00439      0.00011
      0.00000      0.00000      0.00000
      0.00000      0.00000      0.00000
      0.00013     -0.00258     -0.00070
      0.00000      0.00000      0.00000
      0.00000      0.00000      0.00000
      0.00032      0.00879      0.00795
      0.00000      0.00000      0.00000
      0.00000      0.00000      0.00000
      0.00000      0.00000      0.00000
      0.00000      0.00000      0.00000
     -0.00007      0.00045     -0.00017
      0.00547     -0.00381      0.00149
      0.00000      0.00000      0.00000
      0.00000      0.00000      0.00000
      0.00000      0.00000      0.00000
      0.00060     -0.00083      0.00179
      0.00000      0.00000      0.00000
      0.00034      0.00029      0.00004
     -0.00443      0.01670      0.00471
      0.00216      0.00094     -0.00005
      0.00000      0.00000      0.00000
      0.00094      0.00055      0.00092
      0.00000      0.00000      0.00000
      0.01650      0.01617     -0.00678
      0.00000      0.00000      0.00000
      0.00037     -0.00072      0.00033
      0.00454      0.00389      0.00159
      0.00000      0.00000      0.00000
      0.00283     -0.00240      0.00068
      0.00000      0.00000      0.00000
      0.00005      0.00136      0.00003
      0.00000      0.00000      0.00000
      0.02628      0.00265     -0.00551
      0.00000      0.00000      0.00000
      0.00000      0.00000      0.00000
     -0.00233      0.00148      0.00038
      0.00000      0.00000      0.00000
      0.00000      0.00000      0.00000
      0.00000      0.00000      0.00000
      0.00000      0.00000      0.00000
      0.00299      0.00088     -0.00062
      0.00216     -0.00086      0.00047
      0.00000      0.00000      0.00000
      0.00000      0.00000      0.00000
      0.00000      0.00000      0.00000
      0.00000      0.00000      0.00000
      0.00000      0.00000      0.00000
      0.00025      0.00005      0.00007
      0.00000      0.00000      0.00000
      0.01135      0.00625     -0.00645
      0.00000      0.00000      0.00000
      0.00000      0.00000      0.00000
      0.00000      0.00000      0.00000
      0.00000      0.00000      0.00000
      0.00000      0.00000      0.00000
      0.00000      0.00000      0.00000
      0.00273      0.00298      0.00070
      0.00640      0.00466     -0.00951
      0.00001      0.01852      0.00467
      0.00805      0.00356     -0.00413
     -0.00933      0.02623     -0.01003
      0.00432     -0.00465     -0.00104
      0.00209     -0.00061      0.00081
      0.01755      0.00021      0.00556
      0.00042      0.00034     -0.00010
     -0.00296      0.00554     -0.00220
     -0.00669      0.01570      0.00271
     -0.27783     -0.05573      0.16719
     -0.09735      0.16429      0.06719
      0.00000      0.00000      0.00000
      0.00503      0.02249     -0.01358
      0.00000      0.00000      0.00000
      0.00000      0.00000      0.00000
      0.00000      0.00000      0.00000
      0.00028      0.00019     -0.00016
      0.00907      0.00508     -0.00158
     -0.00013      0.00129     -0.00024
      0.00000      0.00000      0.00000
      0.00000      0.00000      0.00000
     -0.00309      0.01344      0.00645
      0.00000      0.00000      0.00000
      0.00000      0.00000      0.00000
      0.00000      0.00000      0.00000
      0.00000      0.00000      0.00000
      0.00000      0.00000      0.00000
      0.00056      0.00205      0.00107
      0.00646      0.00239      0.00128
      0.00455      0.00240      0.00049
      0.00000      0.00000      0.00000
      0.00406      0.00134      0.00094
      0.00052      0.00004     -0.00010
      0.00891      0.00552      0.00730
     -0.00011     -0.00058      0.00034
      0.00000      0.00000      0.00000
      0.00399     -0.00223     -0.00022
      0.00000      0.00000      0.00000
      0.00000      0.00000      0.00000
      0.00000      0.00000      0.00000
      0.00143     -0.00087      0.00048
      0.00668      0.00650     -0.00401
      0.00000      0.00000      0.00000
      0.00000      0.00000      0.00000
      0.00000      0.00000      0.00000
     -0.00266     -0.00328     -0.00582
      0.00038     -0.00023      0.00059
      0.00000      0.00000      0.00000
     -0.00002      0.00025     -0.00033
      0.00000      0.00000      0.00000
     -0.00033      0.00154      0.00002
      0.00000      0.00000      0.00000
      0.00347      0.03953     -0.02537
      0.01500      0.00128     -0.00360
      0.00000      0.00000      0.00000
      0.00137     -0.00078      0.00033
      0.00014      0.00017      0.00014
      0.00000      0.00000      0.00000
      0.00075      0.00030     -0.00009
      0.00000      0.00000      0.00000
     -0.00586      0.02094     -0.00093
     -0.00258      0.01743      0.00610
      0.00000      0.00000      0.00000
      0.00000      0.00000      0.00000
      0.00196      0.00728      0.00100
      0.00000      0.00000      0.00000
      0.00388     -0.00200      0.00102
      0.00000      0.00000      0.00000
      0.00000      0.00000      0.00000
      0.00000      0.00000      0.00000
      0.00000      0.00000      0.00000
      0.00345     -0.00235     -0.00046
      0.00000      0.00000      0.00000
      0.00445      0.00189      0.00045
     -0.00416      0.01570      0.00040
      0.01251      0.00731      0.02228
     -0.10780      0.11231      0.00532

 NEB: forces: par spring, perp REAL, dneb     0.763154    0.154140    0.000000
 NEB: distance to prev, next image, angle between     1.200806    1.353437  142.315269
 NEB: projections on to tangent (spring, REAL)     0.763154   -0.016342

 stress matrix after NEB project (eV)
    -32.67333      0.10019      0.28662
      0.10019    -33.42467     -0.02477
      0.28662     -0.02477    -25.16122
  FORCES: max atom, RMS     0.043867    0.009313
  FORCE total and by dimension    0.155004    0.040881
  Stress total and by dimension   53.085105   33.424672
 OPT: skip step - force has converged


--------------------------------------------------------------------------------------------------------


  
 reached required accuracy - stopping structural energy minimisation
     LOOP+:  cpu time 5298.7602: real time 5318.8534
    4ORBIT:  cpu time    0.0000: real time    0.0000

 total amount of memory used by VASP MPI-rank0  2555025. kBytes
=======================================================================

   base      :      30000. kBytes
   nonlr-proj:      16941. kBytes
   fftplans  :      79581. kBytes
   grid      :     173670. kBytes
   one-center:       1088. kBytes
   wavefun   :    2253745. kBytes

  
  
 General timing and accounting informations for this job:
 ========================================================
  
                  Total CPU time used (sec):     5396.991
                            User time (sec):     5392.554
                          System time (sec):        4.437
                         Elapsed time (sec):     5419.511
  
                   Maximum memory used (kb):     2831344.
                   Average memory used (kb):           0.
  
                          Minor page faults:      1185296
                          Major page faults:          144
                 Voluntary context switches:         3186
