 264  264    1    1
  1.1405043e+04   2.3411295e-09   1.8121237e-09   2.6883367e-09   5.0000000e-16
            1.000000e-04
  CAR
 DOS and projected DOS file by LOBSTER. Energy is shifted such that the Fermi level lies at 0 eV. 
      2.78618308     -12.26398415   301      -2.23053933       1.00000000
 -10.03344    0.00000  392.95556
  -9.98328   45.49829  395.23808
  -9.93311   47.43358  397.61769
  -9.88294   48.50949  400.05128
  -9.83278   48.62695  402.49075
  -9.78261   48.07904  404.90275
  -9.73244   47.41608  407.28148
  -9.68227   47.21470  409.65011
  -9.63211   47.85913  412.05107
  -9.58194   49.41920  414.53029
  -9.53177   51.65713  417.12179
  -9.48161   54.15445  419.83857
  -9.43144   56.52670  422.67435
  -9.38127   58.65617  425.61697
  -9.33110   60.82690  428.66849
  -9.28094   63.65343  431.86180
  -9.23077   67.79927  435.26311
  -9.18060   73.62552  438.95669
  -9.13043   80.97141  443.01880
  -9.08027   89.17986  447.49271
  -9.03010   97.32091  452.37503
  -8.97993  104.47600  457.61630
  -8.92977  109.97668  463.13353
  -8.87960  113.55844  468.83044
  -8.82943  115.40998  474.62024
  -8.77926  116.09021  480.44416
  -8.72910  116.32261  486.27974
  -8.67893  116.75145  492.13684
  -8.62876  117.77567  498.04532
  -8.57860  119.51827  504.04122
  -8.52843  121.89147  510.15617
  -8.47826  124.66876  516.41046
  -8.42809  127.51390  522.80748
  -8.37793  129.99373  529.32890
  -8.32776  131.63006  535.93242
  -8.27759  131.99375  542.55418
  -8.22742  130.77986  549.11504
  -8.17726  127.81693  555.52726
  -8.12709  123.04776  561.70022
  -8.07692  116.55668  567.54755
  -8.02676  108.63311  572.99737
  -7.97659   99.74714  578.00141
  -7.92642   90.34915  582.53397
  -7.87625   80.61255  586.57808
  -7.82609   70.39043  590.10937
  -7.77592   59.52634  593.09565
  -7.72575   48.32697  595.52008
  -7.67559   37.80376  597.41659
  -7.62542   29.43858  598.89344
  -7.57525   24.58433  600.12676
  -7.52508   23.85595  601.32355
  -7.47492   26.83639  602.66986
  -7.42475   32.20534  604.28551
  -7.37458   38.18426  606.20111
  -7.32441   43.08936  608.36278
  -7.27425   45.79684  610.66028
  -7.22408   46.00099  612.96803
  -7.17391   44.23287  615.18707
  -7.12375   41.66564  617.27732
  -7.07358   39.75014  619.27147
  -7.02341   39.72968  621.26460
  -6.97324   42.13509  623.37840
  -6.92308   46.47213  625.70977
  -6.87291   51.35905  628.28632
  -6.82274   55.18676  631.05488
  -6.77258   56.99782  633.91430
  -6.72241   57.03822  636.77575
  -6.67224   56.60844  639.61564
  -6.62207   57.31757  642.49111
  -6.57191   60.22093  645.51222
  -6.52174   65.33143  648.78972
  -6.47157   71.71449  652.38744
  -6.42140   78.04525  656.30275
  -6.37124   83.29676  660.48152
  -6.32107   87.20215  664.85621
  -6.27090   90.28808  669.38571
  -6.22074   93.52508  674.07760
  -6.17057   97.83386  678.98566
  -6.12040  103.70552  684.18827
  -6.07023  111.05715  689.75970
  -6.02007  119.29812  695.74456
  -5.96990  127.53968  702.14287
  -5.91973  134.90018  708.91044
  -5.86957  140.82701  715.97534
  -5.81940  145.28151  723.26371
  -5.76923  148.65630  730.72138
  -5.71906  151.47527  738.32047
  -5.66890  154.10673  746.05158
  -5.61873  156.69497  753.91253
  -5.56856  159.29903  761.90412
  -5.51839  162.04608  770.03353
  -5.46823  165.13570  778.31792
  -5.41806  168.71183  786.78173
  -5.36789  172.75340  795.44829
  -5.31773  177.10552  804.33318
  -5.26756  181.63273  813.44519
  -5.21739  186.36222  822.79446
  -5.16722  191.48715  832.40084
  -5.11706  197.20477  842.29406
  -5.06689  203.48603  852.50239
  -5.01672  209.92865  863.03393
  -4.96656  215.79787  873.85991
  -4.91639  220.24334  884.90890
  -4.86622  222.57864  896.07506
  -4.81605  222.49662  907.23709
  -4.76589  220.16325  918.28207
  -4.71572  216.19968  929.12821
  -4.66555  211.56067  939.74162
  -4.61538  207.29565  950.14107
  -4.56522  204.22749  960.38660
  -4.51505  202.68453  970.55472
  -4.46488  202.44061  980.71060
  -4.41472  202.89749  990.88940
  -4.36455  203.39085 1001.09296
  -4.31438  203.45326 1011.29964
  -4.26421  202.93405 1021.48028
  -4.21405  201.96753 1031.61243
  -4.16388  200.83713 1041.68787
  -4.11371  199.80284 1051.71143
  -4.06355  198.96147 1061.69277
  -4.01338  198.19715 1071.63577
  -3.96321  197.24633 1081.53107
  -3.91304  195.84218 1091.35593
  -3.86288  193.84984 1101.08084
  -3.81271  191.31257 1110.67846
  -3.76254  188.40126 1120.13003
  -3.71237  185.32086 1129.42706
  -3.66221  182.22128 1138.56860
  -3.61204  179.12303 1147.55470
  -3.56187  175.86051 1156.37714
  -3.51171  172.06118 1165.00897
  -3.46154  167.17573 1173.39571
  -3.41137  160.55866 1181.45049
  -3.36120  151.60596 1189.05614
  -3.31104  139.96886 1196.07799
  -3.26087  125.81270 1202.38967
  -3.21070  109.97844 1207.90698
  -3.16054   93.85804 1212.61558
  -3.11037   78.93510 1216.57553
  -3.06020   66.20147 1219.89667
  -3.01003   55.80341 1222.69618
  -2.95987   47.14144 1225.06113
  -2.90970   39.34024 1227.03472
  -2.85953   31.77460 1228.62877
  -2.80936   24.34659 1229.85017
  -2.75920   17.41315 1230.72374
  -2.70903   11.48668 1231.29999
  -2.65886    6.92823 1231.64756
  -2.60870    3.79641 1231.83802
  -2.55853    1.88064 1231.93236
  -2.50836    0.83890 1231.97445
  -2.45819    0.33587 1231.99130
  -2.40803    0.12037 1231.99734
  -2.35786    0.03853 1231.99927
  -2.30769    0.01099 1231.99982
  -2.25753    0.00279 1231.99996
  -2.20736    0.00063 1231.99999
  -2.15719    0.00013 1232.00000
  -2.10702    0.00002 1232.00000
  -2.05686    0.00000 1232.00000
  -2.00669    0.00000 1232.00000
  -1.95652    0.00000 1232.00000
  -1.90635    0.00000 1232.00000
  -1.85619    0.00000 1232.00000
  -1.80602    0.00000 1232.00000
  -1.75585    0.00000 1232.00000
  -1.70569    0.00000 1232.00000
  -1.65552    0.00000 1232.00000
  -1.60535    0.00000 1232.00000
  -1.55518    0.00000 1232.00000
  -1.50502    0.00000 1232.00000
  -1.45485    0.00000 1232.00000
  -1.40468    0.00000 1232.00000
  -1.35452    0.00000 1232.00000
  -1.30435    0.00003 1232.00000
  -1.25418    0.00014 1232.00001
  -1.20401    0.00066 1232.00004
  -1.15385    0.00280 1232.00018
  -1.10368    0.01041 1232.00070
  -1.05351    0.03420 1232.00242
  -1.00334    0.09921 1232.00740
  -0.95318    0.25407 1232.02014
  -0.90301    0.57443 1232.04896
  -0.85284    1.14664 1232.10648
  -0.80268    2.02082 1232.20786
  -0.75251    3.14442 1232.36561
  -0.70234    4.31986 1232.58233
  -0.65217    5.23983 1232.84519
  -0.60201    5.61156 1233.12671
  -0.55184    5.30605 1233.39290
  -0.50167    4.42973 1233.61513
  -0.45151    3.26515 1233.77893
  -0.40134    2.12493 1233.88553
  -0.35117    1.22095 1233.94678
  -0.30100    0.61939 1233.97786
  -0.25084    0.27742 1233.99177
  -0.20067    0.10970 1233.99728
  -0.15050    0.03830 1233.99920
  -0.10033    0.01181 1233.99979
  -0.05017    0.00324 1233.99995
  -0.00000    0.00094 1234.00000
   0.05017    0.00093 1234.00005
   0.10033    0.00324 1234.00021
   0.15050    0.01180 1234.00080
   0.20067    0.03829 1234.00272
   0.25084    0.10967 1234.00822
   0.30100    0.27736 1234.02214
   0.35117    0.61928 1234.05321
   0.40134    1.22077 1234.11445
   0.45151    2.12468 1234.22104
   0.50167    3.26487 1234.38483
   0.55184    4.42952 1234.60704
   0.60201    5.30614 1234.87324
   0.65217    5.61269 1235.15481
   0.70234    5.24448 1235.41791
   0.75251    4.33612 1235.63544
   0.80268    3.19503 1235.79573
   0.85284    2.16081 1235.90413
   0.90301    1.48945 1235.97885
   0.95318    1.31622 1236.04488
   1.00334    1.67162 1236.12874
   1.05351    2.49108 1236.25371
   1.10368    3.59755 1236.43419
   1.15385    4.69745 1236.66985
   1.20401    5.44606 1236.94307
   1.25418    5.58204 1237.22310
   1.30435    5.05323 1237.47661
   1.35452    4.03987 1237.67928
   1.40468    2.85426 1237.82247
   1.45485    1.78979 1237.91226
   1.50502    1.01984 1237.96342
   1.55518    0.59259 1237.99315
   1.60535    0.49252 1238.01786
   1.65552    0.70561 1238.05325
   1.70569    1.24037 1238.11548
   1.75585    2.09425 1238.22054
   1.80602    3.19279 1238.38072
   1.85619    4.35487 1238.59919
   1.90635    5.33436 1238.86680
   1.95652    5.94088 1239.16484
   2.00669    6.17211 1239.47447
   2.05686    6.25521 1239.78828
   2.10702    6.54433 1240.11659
   2.15719    7.32521 1240.48408
   2.20736    8.65349 1240.91820
   2.25753   10.33048 1241.43645
   2.30769   12.02147 1242.03953
   2.35786   13.42856 1242.71321
   2.40803   14.41303 1243.43627
   2.45819   15.01878 1244.18972
   2.50836   15.42038 1244.96332
   2.55853   15.85333 1245.75863
   2.60870   16.56843 1246.58983
   2.65886   17.81004 1247.48331
   2.70903   19.78606 1248.47592
   2.75920   22.60167 1249.60978
   2.80936   26.16996 1250.92266
   2.85953   30.15831 1252.43561
   2.90970   34.03359 1254.14298
   2.95987   37.21579 1256.01000
   3.01003   39.27657 1257.98039
   3.06020   40.08669 1259.99143
   3.11037   39.85012 1261.99060
   3.16054   39.02346 1263.94830
   3.21070   38.15928 1265.86265
   3.26087   37.72381 1267.75514
   3.31104   37.94829 1269.65890
   3.36120   38.77616 1271.60420
   3.41137   39.93541 1273.60765
   3.46154   41.09841 1275.66944
   3.51171   42.04106 1277.77852
   3.56187   42.72310 1279.92182
   3.61204   43.26706 1282.09241
   3.66221   43.86602 1284.29305
   3.71237   44.67334 1286.53418
   3.76254   45.72513 1288.82809
   3.81271   46.92981 1291.18243
   3.86288   48.12959 1293.59695
   3.91304   49.20004 1296.06518
   3.96321   50.12727 1298.57993
   4.01338   51.01328 1301.13912
   4.06355   52.01149 1303.74840
   4.11371   53.24856 1306.41973
   4.16388   54.79774 1309.16878
   4.21405   56.72138 1312.01433
   4.26421   59.13624 1314.98103
   4.31438   62.22945 1318.10291
   4.36455   66.18651 1321.42331
   4.41472   71.06047 1324.98821
   4.46488   76.66380 1328.83422
   4.51505   82.56480 1332.97627
   4.56522   88.21275 1337.40166
   4.61538   93.13934 1342.07420
   4.66555   97.13667 1346.94728
   4.71572  100.32368 1351.98024
   4.76589  103.07262 1357.15111
   4.81605  105.84153 1362.46088
   4.86622  109.00403 1367.92931
   4.91639  112.75796 1373.58606
   4.96656  117.13412 1379.46236
   5.01672  122.06160 1385.58585
      5.01672241     -10.03344482   301      -2.23053933       1.00000000; Z=  1; 1s 
-10.03344   0.00000
 -9.98328   0.02336
 -9.93311   0.02550
 -9.88294   0.02792
 -9.83278   0.03065
 -9.78261   0.03359
 -9.73244   0.03678
 -9.68227   0.04055
 -9.63211   0.04562
 -9.58194   0.05284
 -9.53177   0.06250
 -9.48161   0.07361
 -9.43144   0.08386
 -9.38127   0.09048
 -9.33110   0.09176
 -9.28094   0.08801
 -9.23077   0.08131
 -9.18060   0.07423
 -9.13043   0.06854
 -9.08027   0.06482
 -9.03010   0.06321
 -8.97993   0.06448
 -8.92977   0.07053
 -8.87960   0.08396
 -8.82943   0.10682
 -8.77926   0.13909
 -8.72910   0.17776
 -8.67893   0.21704
 -8.62876   0.25006
 -8.57860   0.27117
 -8.52843   0.27768
 -8.47826   0.27010
 -8.42809   0.25126
 -8.37793   0.22517
 -8.32776   0.19619
 -8.27759   0.16833
 -8.22742   0.14439
 -8.17726   0.12537
 -8.12709   0.11053
 -8.07692   0.09820
 -8.02676   0.08689
 -7.97659   0.07592
 -7.92642   0.06541
 -7.87625   0.05571
 -7.82609   0.04694
 -7.77592   0.03890
 -7.72575   0.03128
 -7.67559   0.02398
 -7.62542   0.01725
 -7.57525   0.01155
 -7.52508   0.00722
 -7.47492   0.00430
 -7.42475   0.00256
 -7.37458   0.00162
 -7.32441   0.00113
 -7.27425   0.00086
 -7.22408   0.00069
 -7.17391   0.00059
 -7.12375   0.00055
 -7.07358   0.00058
 -7.02341   0.00068
 -6.97324   0.00085
 -6.92308   0.00105
 -6.87291   0.00125
 -6.82274   0.00139
 -6.77258   0.00145
 -6.72241   0.00142
 -6.67224   0.00132
 -6.62207   0.00120
 -6.57191   0.00109
 -6.52174   0.00103
 -6.47157   0.00106
 -6.42140   0.00119
 -6.37124   0.00146
 -6.32107   0.00196
 -6.27090   0.00278
 -6.22074   0.00407
 -6.17057   0.00588
 -6.12040   0.00812
 -6.07023   0.01048
 -6.02007   0.01251
 -5.96990   0.01376
 -5.91973   0.01396
 -5.86957   0.01314
 -5.81940   0.01156
 -5.76923   0.00959
 -5.71906   0.00761
 -5.66890   0.00589
 -5.61873   0.00457
 -5.56856   0.00368
 -5.51839   0.00321
 -5.46823   0.00311
 -5.41806   0.00329
 -5.36789   0.00369
 -5.31773   0.00424
 -5.26756   0.00488
 -5.21739   0.00557
 -5.16722   0.00632
 -5.11706   0.00714
 -5.06689   0.00808
 -5.01672   0.00916
 -4.96656   0.01039
 -4.91639   0.01173
 -4.86622   0.01311
 -4.81605   0.01441
 -4.76589   0.01549
 -4.71572   0.01622
 -4.66555   0.01651
 -4.61538   0.01628
 -4.56522   0.01555
 -4.51505   0.01439
 -4.46488   0.01299
 -4.41472   0.01157
 -4.36455   0.01039
 -4.31438   0.00964
 -4.26421   0.00933
 -4.21405   0.00930
 -4.16388   0.00930
 -4.11371   0.00911
 -4.06355   0.00866
 -4.01338   0.00802
 -3.96321   0.00733
 -3.91304   0.00670
 -3.86288   0.00617
 -3.81271   0.00570
 -3.76254   0.00521
 -3.71237   0.00465
 -3.66221   0.00403
 -3.61204   0.00341
 -3.56187   0.00284
 -3.51171   0.00234
 -3.46154   0.00191
 -3.41137   0.00154
 -3.36120   0.00123
 -3.31104   0.00096
 -3.26087   0.00075
 -3.21070   0.00059
 -3.16054   0.00049
 -3.11037   0.00044
 -3.06020   0.00040
 -3.01003   0.00036
 -2.95987   0.00032
 -2.90970   0.00025
 -2.85953   0.00018
 -2.80936   0.00012
 -2.75920   0.00007
 -2.70903   0.00004
 -2.65886   0.00002
 -2.60870   0.00001
 -2.55853   0.00000
 -2.50836   0.00000
 -2.45819   0.00000
 -2.40803   0.00000
 -2.35786   0.00000
 -2.30769   0.00000
 -2.25753   0.00000
 -2.20736   0.00000
 -2.15719   0.00000
 -2.10702   0.00000
 -2.05686   0.00000
 -2.00669   0.00000
 -1.95652   0.00000
 -1.90635   0.00000
 -1.85619   0.00000
 -1.80602  -0.00000
 -1.75585   0.00000
 -1.70569   0.00000
 -1.65552  -0.00000
 -1.60535  -0.00000
 -1.55518   0.00000
 -1.50502   0.00000
 -1.45485   0.00000
 -1.40468   0.00000
 -1.35452   0.00000
 -1.30435   0.00000
 -1.25418   0.00000
 -1.20401   0.00000
 -1.15385   0.00000
 -1.10368   0.00000
 -1.05351   0.00000
 -1.00334   0.00000
 -0.95318   0.00000
 -0.90301   0.00000
 -0.85284   0.00000
 -0.80268   0.00000
 -0.75251   0.00000
 -0.70234   0.00000
 -0.65217   0.00000
 -0.60201   0.00000
 -0.55184   0.00000
 -0.50167   0.00000
 -0.45151   0.00000
 -0.40134   0.00000
 -0.35117   0.00000
 -0.30100   0.00000
 -0.25084   0.00000
 -0.20067   0.00000
 -0.15050   0.00000
 -0.10033   0.00000
 -0.05017   0.00000
 -0.00000   0.00000
  0.05017   0.00000
  0.10033   0.00000
  0.15050   0.00000
  0.20067   0.00000
  0.25084   0.00000
  0.30100   0.00000
  0.35117   0.00000
  0.40134   0.00000
  0.45151   0.00000
  0.50167   0.00000
  0.55184   0.00000
  0.60201   0.00000
  0.65217   0.00000
  0.70234   0.00000
  0.75251   0.00000
  0.80268   0.00000
  0.85284   0.00000
  0.90301   0.00000
  0.95318   0.00000
  1.00334   0.00000
  1.05351   0.00000
  1.10368   0.00001
  1.15385   0.00001
  1.20401   0.00001
  1.25418   0.00001
  1.30435   0.00001
  1.35452   0.00001
  1.40468   0.00001
  1.45485   0.00001
  1.50502   0.00002
  1.55518   0.00005
  1.60535   0.00011
  1.65552   0.00023
  1.70569   0.00044
  1.75585   0.00075
  1.80602   0.00112
  1.85619   0.00154
  1.90635   0.00199
  1.95652   0.00252
  2.00669   0.00336
  2.05686   0.00486
  2.10702   0.00740
  2.15719   0.01126
  2.20736   0.01644
  2.25753   0.02264
  2.30769   0.02947
  2.35786   0.03664
  2.40803   0.04425
  2.45819   0.05271
  2.50836   0.06249
  2.55853   0.07359
  2.60870   0.08534
  2.65886   0.09654
  2.70903   0.10606
  2.75920   0.11336
  2.80936   0.11881
  2.85953   0.12374
  2.90970   0.13016
  2.95987   0.14037
  3.01003   0.15621
  3.06020   0.17838
  3.11037   0.20626
  3.16054   0.23846
  3.21070   0.27384
  3.26087   0.31221
  3.31104   0.35418
  3.36120   0.40028
  3.41137   0.44994
  3.46154   0.50106
  3.51171   0.55065
  3.56187   0.59673
  3.61204   0.63993
  3.66221   0.68316
  3.71237   0.72868
  3.76254   0.77473
  3.81271   0.81476
  3.86288   0.84046
  3.91304   0.84667
  3.96321   0.83468
  4.01338   0.81172
  4.06355   0.78713
  4.11371   0.76739
  4.16388   0.75308
  4.21405   0.73909
  4.26421   0.71788
  4.31438   0.68380
  4.36455   0.63594
  4.41472   0.57817
  4.46488   0.51688
  4.51505   0.45812
  4.56522   0.40602
  4.61538   0.36267
  4.66555   0.32879
  4.71572   0.30409
  4.76589   0.28718
  4.81605   0.27529
  4.86622   0.26475
  4.91639   0.25222
  4.96656   0.23617
  5.01672   0.21758
      5.01672241     -10.03344482   301      -2.23053933       1.00000000; Z=  1; 1s 
-10.03344   0.00000
 -9.98328   0.02935
 -9.93311   0.03941
 -9.88294   0.05069
 -9.83278   0.06181
 -9.78261   0.07113
 -9.73244   0.07728
 -9.68227   0.07976
 -9.63211   0.07917
 -9.58194   0.07692
 -9.53177   0.07443
 -9.48161   0.07232
 -9.43144   0.07021
 -9.38127   0.06712
 -9.33110   0.06234
 -9.28094   0.05604
 -9.23077   0.04936
 -9.18060   0.04390
 -9.13043   0.04102
 -9.08027   0.04138
 -9.03010   0.04485
 -8.97993   0.05079
 -8.92977   0.05843
 -8.87960   0.06719
 -8.82943   0.07708
 -8.77926   0.08905
 -8.72910   0.10514
 -8.67893   0.12823
 -8.62876   0.16082
 -8.57860   0.20329
 -8.52843   0.25212
 -8.47826   0.29945
 -8.42809   0.33487
 -8.37793   0.34927
 -8.32776   0.33869
 -8.27759   0.30584
 -8.22742   0.25834
 -8.17726   0.20523
 -8.12709   0.15404
 -8.07692   0.10956
 -8.02676   0.07406
 -7.97659   0.04788
 -7.92642   0.03002
 -7.87625   0.01867
 -7.82609   0.01182
 -7.77592   0.00772
 -7.72575   0.00514
 -7.67559   0.00338
 -7.62542   0.00213
 -7.57525   0.00126
 -7.52508   0.00068
 -7.47492   0.00033
 -7.42475   0.00014
 -7.37458   0.00005
 -7.32441   0.00001
 -7.27425   0.00000
 -7.22408   0.00000
 -7.17391   0.00000
 -7.12375   0.00001
 -7.07358   0.00001
 -7.02341   0.00002
 -6.97324   0.00004
 -6.92308   0.00005
 -6.87291   0.00007
 -6.82274   0.00010
 -6.77258   0.00017
 -6.72241   0.00032
 -6.67224   0.00063
 -6.62207   0.00119
 -6.57191   0.00208
 -6.52174   0.00331
 -6.47157   0.00478
 -6.42140   0.00621
 -6.37124   0.00726
 -6.32107   0.00766
 -6.27090   0.00728
 -6.22074   0.00627
 -6.17057   0.00497
 -6.12040   0.00376
 -6.07023   0.00293
 -6.02007   0.00259
 -5.96990   0.00270
 -5.91973   0.00313
 -5.86957   0.00370
 -5.81940   0.00426
 -5.76923   0.00472
 -5.71906   0.00504
 -5.66890   0.00522
 -5.61873   0.00530
 -5.56856   0.00539
 -5.51839   0.00559
 -5.46823   0.00600
 -5.41806   0.00667
 -5.36789   0.00761
 -5.31773   0.00875
 -5.26756   0.01001
 -5.21739   0.01131
 -5.16722   0.01257
 -5.11706   0.01373
 -5.06689   0.01475
 -5.01672   0.01557
 -4.96656   0.01616
 -4.91639   0.01653
 -4.86622   0.01670
 -4.81605   0.01666
 -4.76589   0.01636
 -4.71572   0.01578
 -4.66555   0.01491
 -4.61538   0.01387
 -4.56522   0.01287
 -4.51505   0.01212
 -4.46488   0.01171
 -4.41472   0.01155
 -4.36455   0.01135
 -4.31438   0.01086
 -4.26421   0.00991
 -4.21405   0.00860
 -4.16388   0.00715
 -4.11371   0.00588
 -4.06355   0.00501
 -4.01338   0.00464
 -3.96321   0.00469
 -3.91304   0.00500
 -3.86288   0.00540
 -3.81271   0.00573
 -3.76254   0.00587
 -3.71237   0.00577
 -3.66221   0.00544
 -3.61204   0.00491
 -3.56187   0.00427
 -3.51171   0.00363
 -3.46154   0.00308
 -3.41137   0.00264
 -3.36120   0.00230
 -3.31104   0.00201
 -3.26087   0.00172
 -3.21070   0.00142
 -3.16054   0.00112
 -3.11037   0.00085
 -3.06020   0.00063
 -3.01003   0.00048
 -2.95987   0.00039
 -2.90970   0.00032
 -2.85953   0.00026
 -2.80936   0.00020
 -2.75920   0.00015
 -2.70903   0.00010
 -2.65886   0.00006
 -2.60870   0.00003
 -2.55853   0.00002
 -2.50836   0.00001
 -2.45819   0.00000
 -2.40803   0.00000
 -2.35786   0.00000
 -2.30769   0.00000
 -2.25753   0.00000
 -2.20736   0.00000
 -2.15719   0.00000
 -2.10702   0.00000
 -2.05686   0.00000
 -2.00669   0.00000
 -1.95652   0.00000
 -1.90635   0.00000
 -1.85619   0.00000
 -1.80602   0.00000
 -1.75585   0.00000
 -1.70569  -0.00000
 -1.65552   0.00000
 -1.60535   0.00000
 -1.55518   0.00000
 -1.50502   0.00000
 -1.45485   0.00000
 -1.40468   0.00000
 -1.35452   0.00000
 -1.30435   0.00000
 -1.25418   0.00000
 -1.20401   0.00000
 -1.15385   0.00000
 -1.10368   0.00000
 -1.05351   0.00000
 -1.00334   0.00000
 -0.95318   0.00000
 -0.90301   0.00000
 -0.85284   0.00000
 -0.80268   0.00000
 -0.75251   0.00000
 -0.70234   0.00000
 -0.65217   0.00001
 -0.60201   0.00001
 -0.55184   0.00001
 -0.50167   0.00000
 -0.45151   0.00000
 -0.40134   0.00000
 -0.35117   0.00000
 -0.30100   0.00000
 -0.25084   0.00000
 -0.20067   0.00000
 -0.15050   0.00000
 -0.10033   0.00000
 -0.05017   0.00000
 -0.00000   0.00000
  0.05017   0.00000
  0.10033   0.00000
  0.15050   0.00000
  0.20067   0.00000
  0.25084   0.00000
  0.30100   0.00000
  0.35117   0.00000
  0.40134   0.00000
  0.45151   0.00000
  0.50167   0.00000
  0.55184   0.00000
  0.60201   0.00000
  0.65217   0.00000
  0.70234   0.00000
  0.75251   0.00000
  0.80268   0.00000
  0.85284   0.00000
  0.90301   0.00000
  0.95318   0.00000
  1.00334   0.00000
  1.05351   0.00001
  1.10368   0.00001
  1.15385   0.00001
  1.20401   0.00002
  1.25418   0.00002
  1.30435   0.00002
  1.35452   0.00001
  1.40468   0.00001
  1.45485   0.00001
  1.50502   0.00002
  1.55518   0.00005
  1.60535   0.00011
  1.65552   0.00023
  1.70569   0.00043
  1.75585   0.00073
  1.80602   0.00112
  1.85619   0.00157
  1.90635   0.00212
  1.95652   0.00290
  2.00669   0.00431
  2.05686   0.00697
  2.10702   0.01167
  2.15719   0.01906
  2.20736   0.02934
  2.25753   0.04195
  2.30769   0.05558
  2.35786   0.06848
  2.40803   0.07920
  2.45819   0.08711
  2.50836   0.09254
  2.55853   0.09638
  2.60870   0.09941
  2.65886   0.10186
  2.70903   0.10363
  2.75920   0.10472
  2.80936   0.10572
  2.85953   0.10792
  2.90970   0.11293
  2.95987   0.12192
  3.01003   0.13492
  3.06020   0.15053
  3.11037   0.16669
  3.16054   0.18212
  3.21070   0.19725
  3.26087   0.21372
  3.31104   0.23255
  3.36120   0.25241
  3.41137   0.26984
  3.46154   0.28121
  3.51171   0.28519
  3.56187   0.28352
  3.61204   0.27976
  3.66221   0.27705
  3.71237   0.27685
  3.76254   0.27941
  3.81271   0.28527
  3.86288   0.29641
  3.91304   0.31559
  3.96321   0.34395
  4.01338   0.37858
  4.06355   0.41204
  4.11371   0.43488
  4.16388   0.44001
  4.21405   0.42615
  4.26421   0.39822
  4.31438   0.36464
  4.36455   0.33339
  4.41472   0.30939
  4.46488   0.29416
  4.51505   0.28685
  4.56522   0.28541
  4.61538   0.28716
  4.66555   0.28926
  4.71572   0.28983
  4.76589   0.28915
  4.81605   0.29000
  4.86622   0.29662
  4.91639   0.31264
  4.96656   0.33939
  5.01672   0.37521
      5.01672241     -10.03344482   301      -2.23053933       1.00000000; Z=  1; 1s 
-10.03344   0.00000
 -9.98328   0.01941
 -9.93311   0.02189
 -9.88294   0.02466
 -9.83278   0.02778
 -9.78261   0.03181
 -9.73244   0.03768
 -9.68227   0.04621
 -9.63211   0.05750
 -9.58194   0.07027
 -9.53177   0.08204
 -9.48161   0.09000
 -9.43144   0.09247
 -9.38127   0.08996
 -9.33110   0.08504
 -9.28094   0.08107
 -9.23077   0.08042
 -9.18060   0.08367
 -9.13043   0.08999
 -9.08027   0.09825
 -9.03010   0.10772
 -8.97993   0.11751
 -8.92977   0.12568
 -8.87960   0.12931
 -8.82943   0.12593
 -8.77926   0.11573
 -8.72910   0.10265
 -8.67893   0.09371
 -8.62876   0.09676
 -8.57860   0.11774
 -8.52843   0.15807
 -8.47826   0.21270
 -8.42809   0.26990
 -8.37793   0.31395
 -8.32776   0.33078
 -8.27759   0.31416
 -8.22742   0.26863
 -8.17726   0.20712
 -8.12709   0.14474
 -8.07692   0.09270
 -8.02676   0.05557
 -7.97659   0.03229
 -7.92642   0.01904
 -7.87625   0.01184
 -7.82609   0.00781
 -7.77592   0.00533
 -7.72575   0.00366
 -7.67559   0.00255
 -7.62542   0.00189
 -7.57525   0.00164
 -7.52508   0.00168
 -7.47492   0.00185
 -7.42475   0.00198
 -7.37458   0.00194
 -7.32441   0.00172
 -7.27425   0.00135
 -7.22408   0.00094
 -7.17391   0.00058
 -7.12375   0.00032
 -7.07358   0.00016
 -7.02341   0.00009
 -6.97324   0.00006
 -6.92308   0.00006
 -6.87291   0.00007
 -6.82274   0.00008
 -6.77258   0.00009
 -6.72241   0.00010
 -6.67224   0.00011
 -6.62207   0.00015
 -6.57191   0.00025
 -6.52174   0.00045
 -6.47157   0.00081
 -6.42140   0.00142
 -6.37124   0.00235
 -6.32107   0.00364
 -6.27090   0.00521
 -6.22074   0.00688
 -6.17057   0.00846
 -6.12040   0.00986
 -6.07023   0.01122
 -6.02007   0.01289
 -5.96990   0.01518
 -5.91973   0.01805
 -5.86957   0.02100
 -5.81940   0.02316
 -5.76923   0.02370
 -5.71906   0.02225
 -5.66890   0.01911
 -5.61873   0.01510
 -5.56856   0.01120
 -5.51839   0.00814
 -5.46823   0.00627
 -5.41806   0.00562
 -5.36789   0.00595
 -5.31773   0.00698
 -5.26756   0.00837
 -5.21739   0.00983
 -5.16722   0.01107
 -5.11706   0.01193
 -5.06689   0.01230
 -5.01672   0.01218
 -4.96656   0.01167
 -4.91639   0.01097
 -4.86622   0.01025
 -4.81605   0.00963
 -4.76589   0.00910
 -4.71572   0.00855
 -4.66555   0.00782
 -4.61538   0.00686
 -4.56522   0.00571
 -4.51505   0.00456
 -4.46488   0.00360
 -4.41472   0.00299
 -4.36455   0.00284
 -4.31438   0.00317
 -4.26421   0.00394
 -4.21405   0.00509
 -4.16388   0.00646
 -4.11371   0.00787
 -4.06355   0.00906
 -4.01338   0.00986
 -3.96321   0.01013
 -3.91304   0.00990
 -3.86288   0.00926
 -3.81271   0.00833
 -3.76254   0.00720
 -3.71237   0.00593
 -3.66221   0.00464
 -3.61204   0.00342
 -3.56187   0.00239
 -3.51171   0.00161
 -3.46154   0.00107
 -3.41137   0.00073
 -3.36120   0.00052
 -3.31104   0.00038
 -3.26087   0.00028
 -3.21070   0.00021
 -3.16054   0.00017
 -3.11037   0.00015
 -3.06020   0.00014
 -3.01003   0.00014
 -2.95987   0.00013
 -2.90970   0.00012
 -2.85953   0.00009
 -2.80936   0.00007
 -2.75920   0.00004
 -2.70903   0.00002
 -2.65886   0.00001
 -2.60870   0.00000
 -2.55853   0.00000
 -2.50836  -0.00000
 -2.45819  -0.00000
 -2.40803  -0.00000
 -2.35786  -0.00000
 -2.30769  -0.00000
 -2.25753  -0.00000
 -2.20736  -0.00000
 -2.15719  -0.00000
 -2.10702  -0.00000
 -2.05686  -0.00000
 -2.00669  -0.00000
 -1.95652  -0.00000
 -1.90635  -0.00000
 -1.85619  -0.00000
 -1.80602   0.00000
 -1.75585   0.00000
 -1.70569  -0.00000
 -1.65552  -0.00000
 -1.60535  -0.00000
 -1.55518   0.00000
 -1.50502   0.00000
 -1.45485   0.00000
 -1.40468   0.00000
 -1.35452   0.00000
 -1.30435   0.00000
 -1.25418   0.00000
 -1.20401   0.00000
 -1.15385   0.00000
 -1.10368   0.00000
 -1.05351   0.00000
 -1.00334   0.00000
 -0.95318   0.00000
 -0.90301   0.00000
 -0.85284   0.00000
 -0.80268   0.00001
 -0.75251   0.00001
 -0.70234   0.00001
 -0.65217   0.00002
 -0.60201   0.00002
 -0.55184   0.00002
 -0.50167   0.00001
 -0.45151   0.00001
 -0.40134   0.00001
 -0.35117   0.00000
 -0.30100   0.00000
 -0.25084   0.00000
 -0.20067   0.00000
 -0.15050   0.00000
 -0.10033   0.00000
 -0.05017   0.00000
 -0.00000   0.00000
  0.05017   0.00000
  0.10033   0.00000
  0.15050   0.00000
  0.20067   0.00000
  0.25084   0.00000
  0.30100   0.00000
  0.35117   0.00000
  0.40134   0.00000
  0.45151   0.00000
  0.50167   0.00000
  0.55184   0.00000
  0.60201   0.00000
  0.65217   0.00000
  0.70234   0.00000
  0.75251   0.00000
  0.80268   0.00000
  0.85284   0.00000
  0.90301   0.00000
  0.95318   0.00000
  1.00334   0.00001
  1.05351   0.00001
  1.10368   0.00001
  1.15385   0.00002
  1.20401   0.00002
  1.25418   0.00002
  1.30435   0.00002
  1.35452   0.00002
  1.40468   0.00001
  1.45485   0.00002
  1.50502   0.00003
  1.55518   0.00008
  1.60535   0.00019
  1.65552   0.00040
  1.70569   0.00075
  1.75585   0.00125
  1.80602   0.00188
  1.85619   0.00258
  1.90635   0.00334
  1.95652   0.00431
  2.00669   0.00591
  2.05686   0.00886
  2.10702   0.01399
  2.15719   0.02196
  2.20736   0.03296
  2.25753   0.04646
  2.30769   0.06133
  2.35786   0.07615
  2.40803   0.08983
  2.45819   0.10217
  2.50836   0.11396
  2.55853   0.12652
  2.60870   0.14082
  2.65886   0.15676
  2.70903   0.17323
  2.75920   0.18917
  2.80936   0.20487
  2.85953   0.22264
  2.90970   0.24596
  2.95987   0.27720
  3.01003   0.31528
  3.06020   0.35487
  3.11037   0.38823
  3.16054   0.40879
  3.21070   0.41433
  3.26087   0.40751
  3.31104   0.39358
  3.36120   0.37716
  3.41137   0.36051
  3.46154   0.34412
  3.51171   0.32853
  3.56187   0.31545
  3.61204   0.30744
  3.66221   0.30688
  3.71237   0.31512
  3.76254   0.33218
  3.81271   0.35653
  3.86288   0.38489
  3.91304   0.41231
  3.96321   0.43328
  4.01338   0.44331
  4.06355   0.44077
  4.11371   0.42772
  4.16388   0.40934
  4.21405   0.39187
  4.26421   0.37993
  4.31438   0.37499
  4.36455   0.37581
  4.41472   0.38039
  4.46488   0.38757
  4.51505   0.39707
  4.56522   0.40798
  4.61538   0.41762
  4.66555   0.42176
  4.71572   0.41667
  4.76589   0.40128
  4.81605   0.37810
  4.86622   0.35210
  4.91639   0.32876
  4.96656   0.31217
  5.01672   0.30440
      5.01672241     -10.03344482   301      -2.23053933       1.00000000; Z=  1; 1s 
-10.03344   0.00000
 -9.98328   0.03598
 -9.93311   0.03657
 -9.88294   0.03601
 -9.83278   0.03477
 -9.78261   0.03364
 -9.73244   0.03355
 -9.68227   0.03527
 -9.63211   0.03929
 -9.58194   0.04568
 -9.53177   0.05403
 -9.48161   0.06344
 -9.43144   0.07250
 -9.38127   0.07955
 -9.33110   0.08306
 -9.28094   0.08224
 -9.23077   0.07748
 -9.18060   0.07031
 -9.13043   0.06278
 -9.08027   0.05657
 -9.03010   0.05231
 -8.97993   0.04961
 -8.92977   0.04763
 -8.87960   0.04592
 -8.82943   0.04502
 -8.77926   0.04671
 -8.72910   0.05370
 -8.67893   0.06893
 -8.62876   0.09431
 -8.57860   0.12911
 -8.52843   0.16871
 -8.47826   0.20521
 -8.42809   0.23021
 -8.37793   0.23871
 -8.32776   0.23157
 -8.27759   0.21460
 -8.22742   0.19510
 -8.17726   0.17854
 -8.12709   0.16751
 -8.07692   0.16259
 -8.02676   0.16335
 -7.97659   0.16811
 -7.92642   0.17327
 -7.87625   0.17374
 -7.82609   0.16502
 -7.77592   0.14563
 -7.72575   0.11795
 -7.67559   0.08707
 -7.62542   0.05836
 -7.57525   0.03546
 -7.52508   0.01953
 -7.47492   0.00982
 -7.42475   0.00463
 -7.37458   0.00223
 -7.32441   0.00129
 -7.27425   0.00099
 -7.22408   0.00088
 -7.17391   0.00078
 -7.12375   0.00064
 -7.07358   0.00048
 -7.02341   0.00034
 -6.97324   0.00024
 -6.92308   0.00019
 -6.87291   0.00017
 -6.82274   0.00017
 -6.77258   0.00018
 -6.72241   0.00021