 vasp.5.4.4.18Apr17-6-g9f103f2a35 (build Oct 20 2021 08:33:53) complex           
 executed on             LinuxGNU date 2024.03.19  22:01:57
 running on   32 total cores
 distrk:  each k-point on   32 cores,    1 groups
 distr:  one band on NCORES_PER_BAND=   4 cores,    8 groups


--------------------------------------------------------------------------------------------------------


 INCAR:
 POTCAR:    PAW_PBE C 08Apr2002                   
 POTCAR:    PAW_PBE H 15Jun2001                   
 POTCAR:    PAW_PBE O 08Apr2002                   
 POTCAR:    PAW_PBE Si 05Jan2001                  
 POTCAR:    PAW_PBE W 08Apr2002                   
 POTCAR:    PAW_PBE C 08Apr2002                   
   VRHFIN =C: s2p2                                                              
   LEXCH  = PE                                                                  
   EATOM  =   147.1560 eV,   10.8157 Ry                                         
                                                                                
   TITEL  = PAW_PBE C 08Apr2002                                                 
   LULTRA =        F    use ultrasoft PP ?                                      
   IUNSCR =        1    unscreen: 0-lin 1-nonlin 2-no                           
   RPACOR =    1.200    partial core radius                                     
   POMASS =   12.011; ZVAL   =    4.000    mass and valenz                      
   RCORE  =    1.500    outmost cutoff radius                                   
   RWIGS  =    1.630; RWIGS  =    0.863    wigner-seitz radius (au A)           
   ENMAX  =  400.000; ENMIN  =  300.000 eV                                      
   ICORE  =        2    local potential                                         
   LCOR   =        T    correct aug charges                                     
   LPAW   =        T    paw PP                                                  
   EAUG   =  644.873                                                            
   DEXC   =    0.000                                                            
   RMAX   =    1.529    core radius for proj-oper                               
   RAUG   =    1.300    factor for augmentation sphere                          
   RDEP   =    1.501    radius for radial grids                                 
   RDEPT  =    1.300    core radius for aug-charge                              
                                                                                
   Atomic configuration                                                         
    4 entries                                                                   
     n  l   j            E        occ.                                          
     1  0  0.50      -273.3789   2.0000                                         
     2  0  0.50       -13.7508   2.0000                                         
     2  1  0.50        -5.2854   2.0000                                         
     3  2  1.50        -5.4423   0.0000                                         
   Description                                                                  
     l       E           TYP  RCUT    TYP  RCUT                                 
     0    -13.7508458     23  1.200                                             
     0     -8.2022199     23  1.200                                             
     1     -5.2854383     23  1.500                                             
     1     34.0145650     23  1.500                                             
     2     -5.4423304      7  1.500                                             
  local pseudopotential read in
  partial core-charges read in
  partial kinetic energy density read in
  atomic valenz-charges read in
  non local Contribution for L=           0  read in
    real space projection operators read in
  non local Contribution for L=           0  read in
    real space projection operators read in
  non local Contribution for L=           1  read in
    real space projection operators read in
  non local Contribution for L=           1  read in
    real space projection operators read in
    PAW grid and wavefunctions read in

   number of l-projection  operators is LMAX  =           4
   number of lm-projection operators is LMMAX =           8

 POTCAR:    PAW_PBE H 15Jun2001                   
   VRHFIN =H: ultrasoft test                                                    
   LEXCH  = PE                                                                  
   EATOM  =    12.4884 eV,    0.9179 Ry                                         
                                                                                
   TITEL  = PAW_PBE H 15Jun2001                                                 
   LULTRA =        F    use ultrasoft PP ?                                      
   IUNSCR =        0    unscreen: 0-lin 1-nonlin 2-no                           
   RPACOR =    0.000    partial core radius                                     
   POMASS =    1.000; ZVAL   =    1.000    mass and valenz                      
   RCORE  =    1.100    outmost cutoff radius                                   
   RWIGS  =    0.700; RWIGS  =    0.370    wigner-seitz radius (au A)           
   ENMAX  =  250.000; ENMIN  =  200.000 eV                                      
   RCLOC  =    0.701    cutoff for local pot                                    
   LCOR   =        T    correct aug charges                                     
   LPAW   =        T    paw PP                                                  
   EAUG   =  400.000                                                            
   RMAX   =    1.123    core radius for proj-oper                               
   RAUG   =    1.200    factor for augmentation sphere                          
   RDEP   =    1.112    radius for radial grids                                 
   RDEPT  =    0.926    core radius for aug-charge                              
                                                                                
   Atomic configuration                                                         
    2 entries                                                                   
     n  l   j            E        occ.                                          
     1  0  0.50        -6.4927   1.0000                                         
     2  1  0.50        -3.4015   0.0000                                         
   Description                                                                  
     l       E           TYP  RCUT    TYP  RCUT                                 
     0     -6.4927494     23  1.100                                             
     0      6.8029130     23  1.100                                             
     1     -4.0817478     23  1.100                                             
  local pseudopotential read in
  atomic valenz-charges read in
  non local Contribution for L=           0  read in
    real space projection operators read in
  non local Contribution for L=           0  read in
    real space projection operators read in
  non local Contribution for L=           1  read in
    real space projection operators read in
    PAW grid and wavefunctions read in

   number of l-projection  operators is LMAX  =           3
   number of lm-projection operators is LMMAX =           5

 POTCAR:    PAW_PBE O 08Apr2002                   
   VRHFIN =O: s2p4                                                              
   LEXCH  = PE                                                                  
   EATOM  =   432.3788 eV,   31.7789 Ry                                         
                                                                                
   TITEL  = PAW_PBE O 08Apr2002                                                 
   LULTRA =        F    use ultrasoft PP ?                                      
   IUNSCR =        1    unscreen: 0-lin 1-nonlin 2-no                           
   RPACOR =    1.200    partial core radius                                     
   POMASS =   16.000; ZVAL   =    6.000    mass and valenz                      
   RCORE  =    1.520    outmost cutoff radius                                   
   RWIGS  =    1.550; RWIGS  =    0.820    wigner-seitz radius (au A)           
   ENMAX  =  400.000; ENMIN  =  300.000 eV                                      
   ICORE  =        2    local potential                                         
   LCOR   =        T    correct aug charges                                     
   LPAW   =        T    paw PP                                                  
   EAUG   =  605.392                                                            
   DEXC   =    0.000                                                            
   RMAX   =    1.553    core radius for proj-oper                               
   RAUG   =    1.300    factor for augmentation sphere                          
   RDEP   =    1.550    radius for radial grids                                 
   RDEPT  =    1.329    core radius for aug-charge                              
                                                                                
   Atomic configuration                                                         
    4 entries                                                                   
     n  l   j            E        occ.                                          
     1  0  0.50      -514.6923   2.0000                                         
     2  0  0.50       -23.9615   2.0000                                         
     2  1  0.50        -9.0305   4.0000                                         
     3  2  1.50        -9.5241   0.0000                                         
   Description                                                                  
     l       E           TYP  RCUT    TYP  RCUT                                 
     0    -23.9615318     23  1.200                                             
     0     -9.5240782     23  1.200                                             
     1     -9.0304911     23  1.520                                             
     1      8.1634956     23  1.520                                             
     2     -9.5240782      7  1.500                                             
  local pseudopotential read in
  partial core-charges read in
  partial kinetic energy density read in
  kinetic energy density of atom read in
  atomic valenz-charges read in
  non local Contribution for L=           0  read in
    real space projection operators read in
  non local Contribution for L=           0  read in
    real space projection operators read in
  non local Contribution for L=           1  read in
    real space projection operators read in
  non local Contribution for L=           1  read in
    real space projection operators read in
    PAW grid and wavefunctions read in

   number of l-projection  operators is LMAX  =           4
   number of lm-projection operators is LMMAX =           8

 POTCAR:    PAW_PBE Si 05Jan2001                  
   VRHFIN =Si: s2p2                                                             
   LEXCH  = PE                                                                  
   EATOM  =   103.0669 eV,    7.5752 Ry                                         
                                                                                
   TITEL  = PAW_PBE Si 05Jan2001                                                
   LULTRA =        F    use ultrasoft PP ?                                      
   IUNSCR =        1    unscreen: 0-lin 1-nonlin 2-no                           
   RPACOR =    1.500    partial core radius                                     
   POMASS =   28.085; ZVAL   =    4.000    mass and valenz                      
   RCORE  =    1.900    outmost cutoff radius                                   
   RWIGS  =    2.480; RWIGS  =    1.312    wigner-seitz radius (au A)           
   ENMAX  =  245.345; ENMIN  =  184.009 eV                                      
   ICORE  =        2    local potential                                         
   LCOR   =        T    correct aug charges                                     
   LPAW   =        T    paw PP                                                  
   EAUG   =  322.069                                                            
   DEXC   =    0.000                                                            
   RMAX   =    1.950    core radius for proj-oper                               
   RAUG   =    1.300    factor for augmentation sphere                          
   RDEP   =    1.993    radius for radial grids                                 
   RDEPT  =    1.837    core radius for aug-charge                              
                                                                                
   Atomic configuration                                                         
    6 entries                                                                   
     n  l   j            E        occ.                                          
     1  0  0.50     -1785.8828   2.0000                                         
     2  0  0.50      -139.4969   2.0000                                         
     2  1  1.50       -95.5546   6.0000                                         
     3  0  0.50       -10.8127   2.0000                                         
     3  1  0.50        -4.0811   2.0000                                         
     3  2  1.50        -4.0817   0.0000                                         
   Description                                                                  
     l       E           TYP  RCUT    TYP  RCUT                                 
     0    -10.8127223     23  1.900                                             
     0     -7.6451159     23  1.900                                             
     1     -4.0811372     23  1.900                                             
     1      2.4879257     23  1.900                                             
     2     -4.0817478      7  1.900                                             
  local pseudopotential read in
  partial core-charges read in
  partial kinetic energy density read in
  atomic valenz-charges read in
  non local Contribution for L=           0  read in
    real space projection operators read in
  non local Contribution for L=           0  read in
    real space projection operators read in
  non local Contribution for L=           1  read in
    real space projection operators read in
  non local Contribution for L=           1  read in
    real space projection operators read in
    PAW grid and wavefunctions read in

   number of l-projection  operators is LMAX  =           4
   number of lm-projection operators is LMMAX =           8

 POTCAR:    PAW_PBE W 08Apr2002                   
   VRHFIN =W : 6s5d                                                             
   LEXCH  = PE                                                                  
   EATOM  =   204.6103 eV,   15.0384 Ry                                         
                                                                                
   TITEL  = PAW_PBE W 08Apr2002                                                 
   LULTRA =        F    use ultrasoft PP ?                                      
   IUNSCR =        1    unscreen: 0-lin 1-nonlin 2-no                           
   RPACOR =    2.330    partial core radius                                     
   POMASS =  183.850; ZVAL   =    6.000    mass and valenz                      
   RCORE  =    2.750    outmost cutoff radius                                   
   RWIGS  =    2.750; RWIGS  =    1.455    wigner-seitz radius (au A)           
   ENMAX  =  223.057; ENMIN  =  167.293 eV                                      
   RCLOC  =    2.147    cutoff for local pot                                    
   LCOR   =        T    correct aug charges                                     
   LPAW   =        T    paw PP                                                  
   EAUG   =  373.438                                                            
   DEXC   =    0.000                                                            
   RMAX   =    2.801    core radius for proj-oper                               
   RAUG   =    1.300    factor for augmentation sphere                          
   RDEP   =    2.886    radius for radial grids                                 
   RDEPT  =    2.230    core radius for aug-charge                              
                                                                                
   Atomic configuration                                                         
   16 entries                                                                   
     n  l   j            E        occ.                                          
     1  0  0.50    -69465.5836   2.0000                                         
     2  0  0.50    -11986.2642   2.0000                                         
     2  1  1.50    -10479.8616   6.0000                                         
     3  0  0.50     -2759.0758   2.0000                                         
     3  1  1.50     -2313.1857   6.0000                                         
     3  2  2.50     -1801.1185  10.0000                                         
     4  0  0.50      -567.6791   2.0000                                         
     4  1  1.50      -421.4694   6.0000                                         
     4  2  2.50      -236.3473  10.0000                                         
     4  3  3.50       -31.2666  14.0000                                         
     5  0  0.50       -77.1085   2.0000                                         
     5  1  1.50       -41.3856   6.0000                                         
     5  2  2.50        -3.3185   5.0000                                         
     6  0  0.50        -5.1438   1.0000                                         
     6  1  0.50        -3.8096   0.0000                                         
     5  3  2.50        -1.3606   0.0000                                         
   Description                                                                  
     l       E           TYP  RCUT    TYP  RCUT                                 
     2     -3.3185288     23  2.500                                             
     2     -1.5965414     23  2.500                                             
     0     -5.1438054     23  2.500                                             
     0      4.9117504     23  2.500                                             
     1      2.7211652     23  2.750                                             
     1     27.2116520     23  2.750                                             
  local pseudopotential read in
  partial core-charges read in
  partial kinetic energy density read in
  atomic valenz-charges read in
  non local Contribution for L=           2  read in
    real space projection operators read in
  non local Contribution for L=           2  read in
    real space projection operators read in
  non local Contribution for L=           0  read in
    real space projection operators read in
  non local Contribution for L=           0  read in
    real space projection operators read in
  non local Contribution for L=           1  read in
    real space projection operators read in
  non local Contribution for L=           1  read in
    real space projection operators read in
    PAW grid and wavefunctions read in

   number of l-projection  operators is LMAX  =           6
   number of lm-projection operators is LMMAX =          18

 Optimization of the real space projectors (new method)

 maximal supplied QI-value         = 25.13
 optimisation between [QCUT,QGAM] = [ 11.31, 22.87] = [ 35.82,146.48] Ry 
 Optimized for a Real-space Cutoff    1.00 Angstroem

   l    n(q)    QCUT    max X(q) W(low)/X(q) W(high)/X(q)  e(spline) 
   0      7    11.310   115.676    0.43E-03    0.13E-02    0.19E-06
   0      7    11.310    87.132    0.43E-03    0.13E-02    0.18E-06
   1      6    11.310     4.429    0.42E-03    0.74E-03    0.11E-06
   1      6    11.310     2.733    0.34E-03    0.55E-03    0.92E-07
 Optimization of the real space projectors (new method)

 maximal supplied QI-value         = 34.20
 optimisation between [QCUT,QGAM] = [ 11.29, 22.57] = [ 35.68,142.71] Ry 
 Optimized for a Real-space Cutoff    1.16 Angstroem

   l    n(q)    QCUT    max X(q) W(low)/X(q) W(high)/X(q)  e(spline) 
   0      8    11.287    19.460    0.40E-03    0.73E-03    0.16E-06
   0      8    11.287    12.209    0.38E-03    0.70E-03    0.15E-06
   1      7    11.287     4.655    0.22E-03    0.25E-04    0.22E-06
 Optimization of the real space projectors (new method)

 maximal supplied QI-value         = 24.76
 optimisation between [QCUT,QGAM] = [ 11.39, 22.77] = [ 36.31,145.25] Ry 
 Optimized for a Real-space Cutoff    1.00 Angstroem

   l    n(q)    QCUT    max X(q) W(low)/X(q) W(high)/X(q)  e(spline) 
   0      7    11.387    20.381    0.39E-03    0.13E-02    0.15E-06
   0      7    11.387    15.268    0.42E-03    0.14E-02    0.17E-06
   1      6    11.387     5.964    0.41E-03    0.11E-02    0.17E-06
   1      6    11.387     5.382    0.39E-03    0.87E-03    0.15E-06
 Optimization of the real space projectors (new method)

 maximal supplied QI-value         = 19.84
 optimisation between [QCUT,QGAM] = [ 11.31, 22.82] = [ 35.82,145.81] Ry 
 Optimized for a Real-space Cutoff    1.16 Angstroem

   l    n(q)    QCUT    max X(q) W(low)/X(q) W(high)/X(q)  e(spline) 
   0      8    11.310   159.560    0.27E-03    0.30E-03    0.39E-07
   0      8    11.310   115.863    0.27E-03    0.30E-03    0.38E-07
   1      7    11.310    88.339    0.28E-03    0.28E-03    0.77E-07
   1      7    11.310    48.592    0.27E-03    0.27E-03    0.74E-07
 Optimization of the real space projectors (new method)

 maximal supplied QI-value         = 13.61
 optimisation between [QCUT,QGAM] = [ 11.43, 22.86] = [ 36.58,146.31] Ry 
 Optimized for a Real-space Cutoff    1.56 Angstroem

   l    n(q)    QCUT    max X(q) W(low)/X(q) W(high)/X(q)  e(spline) 
   2     10    11.429   130.855    0.22E-03    0.64E-03    0.11E-05
   2     10    11.429   114.007    0.22E-03    0.64E-03    0.11E-05
   0     11    11.429    84.709    0.39E-04    0.67E-04    0.23E-06
   0     11    11.429    49.163    0.35E-04    0.62E-04    0.21E-06
   1     10    11.429    15.765    0.84E-04    0.15E-03    0.24E-06
   1     10    11.429    10.638    0.58E-04    0.12E-03    0.19E-06

 ----------------------------------------------------------------------------- 
|                                                                             |
|  ADVICE TO THIS USER RUNNING 'VASP/VAMP'   (HEAR YOUR MASTER'S VOICE ...):  |
|                                                                             |
|      You enforced a specific xc-type in the INCAR file,                     |
|      a different type was found on the POTCAR file                          |
|          I HOPE YOU KNOW, WHAT YOU ARE  DOING                               |
|                                                                             |
 ----------------------------------------------------------------------------- 

  PAW_PBE C 08Apr2002                   :
 energy of atom  1       EATOM= -147.1560
 kinetic energy error for atom=    0.0076 (will be added to EATOM!!)
  PAW_PBE H 15Jun2001                   :
 energy of atom  2       EATOM=  -12.4884
 kinetic energy error for atom=    0.0020 (will be added to EATOM!!)
  PAW_PBE O 08Apr2002                   :
 energy of atom  3       EATOM= -432.3788
 kinetic energy error for atom=    0.0224 (will be added to EATOM!!)
  PAW_PBE Si 05Jan2001                  :
 energy of atom  4       EATOM= -103.0669
 kinetic energy error for atom=    0.0006 (will be added to EATOM!!)
  PAW_PBE W 08Apr2002                   :
 energy of atom  5       EATOM= -204.6103
 kinetic energy error for atom=    0.0017 (will be added to EATOM!!)


 POSCAR:  C  H  O Si  W                          
  positions in direct lattice
  velocities in cartesian coordinates
 exchange correlation table for  LEXCH =        9
   RHO(1)=    0.500       N(1)  =     2000
   RHO(2)=  100.500       N(2)  =     4000

 VTST: version 3.2, (02/03/18)

 CHAIN: initializing optimizer
 
 OPT: Using VASP Conjugate-Gradient optimizer
 CHAIN: Read ICHAIN            0

 POSCAR:  C  H  O Si  W                          
  positions in direct lattice
  velocities in cartesian coordinates



--------------------------------------------------------------------------------------------------------


 ion  position               nearest neighbor table
   1  0.458  0.578  0.800-  48 1.09  47 1.09   2 1.34
   2  0.472  0.510  0.816-  49 1.09  50 1.09   1 1.34
   3  0.760  0.103  0.651- 125 0.97
   4  0.926  0.276  0.356-  73 0.98
   5  0.793  0.205  0.373- 108 0.97
   6  0.974  0.941  0.325- 117 0.97
   7  0.626  0.961  0.375- 119 0.98
   8  0.820  0.993  0.369- 137 0.97
   9  0.750  0.139  0.458- 175 0.98
  10  0.915  0.247  0.510- 180 0.97
  11  0.583  0.302  0.306- 185 0.97
  12  0.893  0.333  0.615-  91 0.98
  13  0.590  0.358  0.614- 136 0.97
  14  0.593  0.868  0.577- 178 0.99
  15  0.036  0.336  0.651- 184 0.97
  16  0.935  0.417  0.454- 173 0.98
  17  0.746  0.528  0.422-  87 1.00
  18  0.810  0.392  0.641- 165 0.97
  19  0.591  0.566  0.378-  99 0.99
  20  0.718  0.644  0.383- 122 0.99
  21  0.841  0.540  0.420- 128 0.98
  22  0.005  0.602  0.358- 133 0.97
  23  0.828  0.710  0.468- 174 0.99
  24  0.870  0.592  0.724-  53 0.97
  25  0.520  0.983  0.422- 135 0.99
  26  0.223  0.978  0.393- 176 1.00
  27  0.216  0.236  0.319- 191 0.99
  28  0.157  0.328  0.279- 182 0.97
  29  0.341  0.153  0.331- 183 0.98
  30  0.223  0.043  0.323- 190 0.97
  31  0.511  0.822  0.547- 193 0.97
  32  0.380  0.239  0.647-  78 0.97
  33  0.245  0.090  0.598- 129 0.98
  34  0.315  0.485  0.442-  52 0.99
  35  0.409  0.436  0.406- 141 0.98
  36  0.398  0.791  0.389- 179 0.97
  37  0.244  0.653  0.294- 187 0.97
  38  0.312  0.416  0.369- 188 0.98
  39  0.405  0.582  0.339- 189 0.97
  40  0.139  0.486  0.352- 181 0.98
  41  0.593  0.696  0.352-  82 0.97
  42  0.469  0.859  0.444- 192 0.99
  43  0.121  0.319  0.609- 101 0.97
  44  0.072  0.662  0.646- 132 0.97
  45  0.241  0.380  0.682- 177 0.97
  46  0.246  0.815  0.668- 186 0.97
  47  0.490  0.620  0.793-   1 1.09
  48  0.414  0.594  0.794-   1 1.09
  49  0.517  0.494  0.821-   2 1.09
  50  0.440  0.468  0.823-   2 1.09
  51  0.369  0.646  0.439- 225 1.66 260 1.68
  52  0.347  0.502  0.420-  34 0.99 260 1.67
  53  0.862  0.562  0.695-  24 0.97 231 1.64
  54  0.350  0.954  0.530- 236 1.68 269 1.70
  55  0.033  0.930  0.529- 251 1.63 262 1.66
  56  0.636  0.077  0.489- 229 1.60 218 1.65
  57  0.069  0.050  0.395- 217 1.64 209 1.65
  58  0.452  0.127  0.421- 234 1.65 215 1.65
  59  0.806  0.211  0.483- 233 1.67 230 1.69
  60  0.973  0.179  0.599- 211 1.63 241 1.65
  61  0.275  0.297  0.449- 257 1.65 267 1.66
  62  0.556  0.773  0.442- 238 1.51 265 1.66
  63  0.393  0.967  0.620- 255 1.65 269 1.66
  64  0.177  0.348  0.405- 257 1.66 232 1.67
  65  0.867  0.685  0.638- 235 1.64 231 1.64
  66  0.866  0.965  0.467- 227 1.60 242 1.65
  67  0.301  0.759  0.458- 225 1.65 239 1.67
  68  0.422  0.259  0.380- 234 1.67 254 1.67
  69  0.811  0.463  0.520- 261 1.63 208 1.64
  70  0.984  0.070  0.521- 251 1.68 211 1.69
  71  0.519  0.455  0.626- 270 1.68 271 1.93
  72  0.034  0.918  0.429- 262 1.64 209 1.65
  73  0.963  0.301  0.351-   4 0.98 210 1.65
  74  0.070  0.334  0.376- 210 1.64 232 1.65
  75  0.208  0.726  0.395- 239 1.66 249 1.67
  76  0.039  0.417  0.499- 264 1.64 237 1.65
  77  0.240  0.284  0.588- 245 1.63 222 1.64
  78  0.397  0.191  0.644-  32 0.97 216 1.64
  79  0.455  0.556  0.585- 270 1.67 247 1.68
  80  0.910  0.748  0.558- 235 1.64 214 1.66
  81  0.869  0.106  0.442- 242 1.64 230 1.65
  82  0.572  0.665  0.376-  41 0.97 238 1.68
  83  0.142  0.157  0.376- 263 1.65 217 1.65
  84  0.350  0.764  0.607- 207 1.62 248 1.64
  85  0.911  0.843  0.483- 227 1.62 214 1.66
  86  0.061  0.535  0.442- 264 1.66 206 1.67
  87  0.708  0.553  0.420-  17 1.00 220 1.67
  88  0.075  0.815  0.483- 262 1.50 244 1.65
  89  0.700  0.825  0.433- 219 1.53 252 1.65
  90  0.730  0.048  0.543- 218 1.64 253 1.64
  91  0.919  0.299  0.632-  12 0.98 241 1.63
  92  0.735  0.852  0.613- 226 1.66 223 1.68
  93  0.625  0.525  0.486- 228 1.58 220 1.68
  94  0.556  0.627  0.467- 238 1.52 228 1.63
  95  0.427  0.242  0.555- 259 1.68 216 1.68
  96  0.978  0.726  0.477- 244 1.65 214 1.65
  97  0.655  0.593  0.634- 266 1.64 212 1.66
  98  0.397  0.743  0.516- 207 1.66 225 1.67
  99  0.603  0.515  0.386-  19 0.99 220 1.65
 100  0.720  0.630  0.557- 250 1.62 266 1.65
 101  0.145  0.361  0.617-  43 0.97 222 1.64
 102  0.066  0.546  0.542- 264 1.63 268 1.64
 103  0.819  0.883  0.537- 227 1.65 226 1.67
 104  0.828  0.353  0.452- 233 1.65 208 1.65
 105  0.528  0.295  0.531- 259 1.61 240 1.63
 106  0.739  0.499  0.596- 266 1.65 261 1.66
 107  0.557  0.170  0.395- 246 1.59 215 1.64
 108  0.806  0.254  0.383-   5 0.97 233 1.67
 109  0.237  0.951  0.508- 236 1.58 221 1.67
 110  0.694  0.775  0.541- 250 1.64 223 1.64
 111  0.924  0.947  0.553- 251 1.65 227 1.66
 112  0.526  0.316  0.399- 246 1.45 254 1.66
 113  0.469  0.985  0.547- 255 1.69 256 1.70
 114  0.838  0.093  0.540- 230 1.65 253 1.66
 115  0.538  0.114  0.486- 229 1.61 215 1.67
 116  0.350  0.184  0.440- 267 1.63 234 1.65
 117  0.012  0.960  0.335-   6 0.97 209 1.65
 118  0.461  0.585  0.679- 247 1.67 271 1.95
 119  0.655  0.923  0.379-   7 0.98 219 1.66
 120  0.076  0.684  0.436- 206 1.65 244 1.66
 121  0.454  0.400  0.554- 270 1.67 259 1.71
 122  0.719  0.698  0.380-  20 0.99 252 1.65
 123  0.448  0.698  0.602- 247 1.63 207 1.64
 124  0.752  0.707  0.476- 250 1.63 252 1.69
 125  0.778  0.120  0.621-   3 0.97 253 1.64
 126  0.993  0.306  0.448- 237 1.66 210 1.68
 127  0.533  0.506  0.530- 270 1.63 228 1.65
 128  0.817  0.497  0.423-  21 0.98 208 1.69
 129  0.236  0.142  0.605-  33 0.98 245 1.62
 130  0.203  0.828  0.471- 221 1.50 239 1.63
 131  0.240  0.557  0.522- 224 1.65 213 1.66
 132  0.061  0.622  0.624-  44 0.97 268 1.63
 133  0.046  0.600  0.354-  22 0.97 206 1.65
 134  0.801  0.978  0.606- 226 1.66 253 1.68
 135  0.538  0.025  0.405-  25 0.99 215 1.66
 136  0.605  0.310  0.605-  13 0.97 240 1.64
 137  0.861  0.002  0.369-   8 0.97 242 1.66
 138  0.095  0.147  0.467- 243 1.62 217 1.65
 139  0.172  0.202  0.531- 243 1.61 245 1.63
 140  0.641  0.702  0.455- 238 1.65 252 1.66
 141  0.437  0.407  0.386-  35 0.98 254 1.66
 142  0.575  0.055  0.571- 256 1.62 229 1.65
 143  0.151  0.591  0.389- 249 1.68 206 1.68
 144  0.268  0.600  0.392- 260 1.65 249 1.67
 145  0.440  0.320  0.470- 259 1.64 254 1.69
 146  0.238  0.156  0.430- 263 1.65 267 1.67
 147  0.073  0.148  0.562- 243 1.64 211 1.64
 148  0.846  0.547  0.598- 231 1.66 261 1.66
 149  0.621  0.278  0.411- 258 1.65 246 1.66
 150  0.603  0.889  0.467- 265 1.29 219 1.67
 151  0.031  0.193  0.389- 210 1.66 217 1.66
 152  0.608  0.193  0.548- 229 1.62 240 1.63
 153  0.133  0.936  0.479- 262 1.65 221 1.66
 154  0.080  0.278  0.512- 237 1.64 243 1.65
 155  0.373  0.100  0.569- 269 1.63 216 1.69
 156  0.066  0.694  0.536- 244 1.63 268 1.63
 157  0.666  0.413  0.430- 220 1.65 258 1.65
 158  0.800  0.728  0.565- 250 1.61 235 1.63
 159  0.704  0.955  0.470- 218 1.65 219 1.66
 160  0.598  0.631  0.553- 228 1.62 212 1.63
 161  0.723  0.291  0.452- 233 1.63 258 1.64
 162  0.978  0.312  0.547- 237 1.64 241 1.67
 163  0.158  0.627  0.570- 224 1.63 268 1.65
 164  0.633  0.325  0.508- 240 1.63 258 1.65
 165  0.824  0.399  0.607-  18 0.97 261 1.65
 166  0.958  0.025  0.417- 242 1.64 209 1.65
 167  0.282  0.193  0.519- 267 1.62 245 1.65
 168  0.249  0.441  0.461- 213 1.66 257 1.71
 169  0.272  0.846  0.567- 236 1.64 248 1.65
 170  0.204  0.683  0.487- 224 1.63 239 1.66
 171  0.147  0.474  0.493- 213 1.63 264 1.65
 172  0.225  0.421  0.557- 213 1.61 222 1.64
 173  0.911  0.450  0.474-  16 0.98 208 1.65
 174  0.870  0.702  0.464-  23 0.99 214 1.65
 175  0.738  0.091  0.445-   9 0.98 218 1.66
 176  0.222  0.928  0.408-  26 1.00 221 1.64
 177  0.249  0.401  0.650-  45 0.97 222 1.65
 178  0.630  0.881  0.593-  14 0.99 223 1.62
 179  0.410  0.787  0.423-  36 0.97 225 1.68
 180  0.918  0.194  0.508-  10 0.97 230 1.65
 181  0.132  0.441  0.332-  40 0.98 232 1.65
 182  0.155  0.301  0.311-  28 0.97 232 1.69
 183  0.373  0.129  0.348-  29 0.98 234 1.66
 184  0.035  0.289  0.633-  15 0.97 241 1.66
 185  0.573  0.255  0.320-  11 0.97 246 1.66
 186  0.245  0.770  0.649-  46 0.97 248 1.64
 187  0.207  0.646  0.310-  37 0.97 249 1.65
 188  0.275  0.390  0.367-  38 0.98 257 1.66
 189  0.365  0.595  0.342-  39 0.97 260 1.67
 190  0.226  0.054  0.358-  30 0.97 263 1.69
 191  0.241  0.194  0.329-  27 0.99 263 1.66
 192  0.501  0.890  0.455-  42 0.99 265 1.60
 193  0.550  0.825  0.534-  31 0.97 265 1.67
 194  0.545  0.645  0.634- 212 1.65 247 1.66
 195  0.479  0.118  0.597- 256 1.65 216 1.65
 196  0.262  0.691  0.569- 248 1.65 224 1.65
 197  0.444  0.842  0.583- 255 1.66 207 1.69
 198  0.766  0.618  0.650- 266 1.65 231 1.66
 199  0.845  0.831  0.623- 235 1.66 226 1.68
 200  0.640  0.738  0.620- 212 1.67 223 1.71
 201  0.008  0.031  0.603- 211 1.69 251 1.69
 202  0.285  0.998  0.593- 269 1.69 236 1.70
 203  0.504  0.968  0.629- 255 1.69 256 1.70
 204  0.445  0.425  0.713- 271 1.73
 205  0.555  0.485  0.728- 271 1.73
 206  0.083  0.604  0.406- 133 1.65 120 1.65  86 1.67 143 1.68 264 3.13
 207  0.409  0.761  0.575-  84 1.62 123 1.64  98 1.66 197 1.69 248 3.06
 208  0.842  0.439  0.468-  69 1.64 104 1.65 173 1.65 128 1.69
 209  0.017  0.988  0.394-  57 1.65 166 1.65  72 1.65 117 1.65 262 3.11 217 3.13
 210  0.015  0.282  0.391-  74 1.64  73 1.65 151 1.66 126 1.68 237 3.11 217 3.11
 211  0.010  0.112  0.572-  60 1.63 147 1.64  70 1.69 201 1.69 251 2.39 243 3.05 241 3.07
 212  0.610  0.656  0.611- 160 1.63 194 1.65  97 1.66 200 1.67 266 2.87
 213  0.214  0.474  0.510- 172 1.61 171 1.63 131 1.66 168 1.66 224 3.09 257 3.14
 214  0.915  0.753  0.496-  96 1.65 174 1.65  80 1.66  85 1.66 227 2.99 235 3.03
 215  0.520  0.108  0.426- 107 1.64  58 1.65 135 1.66 115 1.67 246 3.08 229 3.13
 216  0.419  0.165  0.589-  78 1.64 195 1.65  95 1.68 155 1.69 269 3.14 256 3.14
 217  0.083  0.137  0.407-  57 1.64 138 1.65  83 1.65 151 1.66 210 3.11 209 3.13 263 3.14
 218  0.702  0.043  0.487-  90 1.64 159 1.65  56 1.65 175 1.66 229 3.09 219 3.10 253 3.15
 219  0.665  0.896  0.437-  89 1.53 159 1.66 119 1.66 150 1.67 265 2.83 252 3.06 218 3.10
 220  0.650  0.502  0.430-  99 1.65 157 1.65  87 1.67  93 1.68 228 3.07
 221  0.198  0.910  0.464- 130 1.50 176 1.64 153 1.66 109 1.67 239 3.01 236 3.05 262 3.07
 222  0.214  0.364  0.603-  77 1.64 172 1.64 101 1.64 177 1.65
 223  0.674  0.812  0.594- 178 1.62 110 1.64  92 1.68 200 1.71 250 2.90
 224  0.216  0.639  0.538- 163 1.63 170 1.63 196 1.65 131 1.65 239 3.09 213 3.09 268 3.13
 225  0.369  0.733  0.459-  67 1.65  51 1.66  98 1.67 179 1.68
 226  0.797  0.887  0.596- 134 1.66  92 1.66 103 1.67 199 1.68 235 2.86 227 2.99 253 3.14
 227  0.880  0.910  0.512-  66 1.60  85 1.62 103 1.65 111 1.66 214 2.99 226 2.99 251 3.06 242 3.13

 228  0.576  0.573  0.512-  93 1.58 160 1.62  94 1.63 127 1.65 238 3.00 220 3.07
 229  0.590  0.113  0.525-  56 1.60 115 1.61 152 1.62 142 1.65 256 2.86 218 3.09 240 3.11 215 3.13

 230  0.858  0.150  0.495- 180 1.65  81 1.65 114 1.65  59 1.69 242 3.07 233 3.15
 231  0.836  0.604  0.645-  53 1.64  65 1.64 148 1.66 198 1.66 266 2.92 235 2.98 261 2.99
 232  0.134  0.358  0.357- 181 1.65  74 1.65  64 1.67 182 1.69 257 3.11
 233  0.791  0.278  0.442- 161 1.63 104 1.65 108 1.67  59 1.67 230 3.15
 234  0.399  0.175  0.396-  58 1.65 116 1.65 183 1.66  68 1.67 254 3.07
 235  0.856  0.750  0.597- 158 1.63  80 1.64  65 1.64 199 1.66 226 2.86 231 2.98 214 3.03
 236  0.283  0.931  0.549- 109 1.58 169 1.64  54 1.68 202 1.70 269 2.38 221 3.05
 237  0.023  0.328  0.502- 154 1.64 162 1.64  76 1.65 126 1.66 241 3.11 210 3.11 243 3.13
 238  0.574  0.693  0.436-  62 1.51  94 1.52 140 1.65  82 1.68 228 3.00 265 3.06 252 3.10
 239  0.230  0.750  0.452- 130 1.63 170 1.66  75 1.66  67 1.67 249 2.97 221 3.01 224 3.09
 240  0.594  0.281  0.548- 164 1.63 105 1.63 152 1.63 136 1.64 229 3.11 258 3.15
 241  0.975  0.270  0.603-  91 1.63  60 1.65 184 1.66 162 1.67 211 3.07 237 3.11
 242  0.889  0.023  0.424-  81 1.64 166 1.64  66 1.65 137 1.66 230 3.07 227 3.13
 243  0.105  0.193  0.518- 139 1.61 138 1.62 147 1.64 154 1.65 211 3.05 237 3.13
 244  0.048  0.731  0.483- 156 1.63  96 1.65  88 1.65 120 1.66 262 3.05 268 3.15
 245  0.232  0.204  0.561- 129 1.62  77 1.63 139 1.63 167 1.65 267 3.02
 246  0.561  0.256  0.381- 112 1.45 107 1.59 149 1.66 185 1.66 254 2.87 215 3.08
 247  0.478  0.623  0.624- 123 1.63 194 1.66 118 1.67  79 1.68 270 3.01 271 3.06
 248  0.281  0.768  0.597- 186 1.64  84 1.64 196 1.65 169 1.65 207 3.06
 249  0.208  0.641  0.372- 187 1.65 144 1.67  75 1.67 143 1.68 239 2.97
 250  0.741  0.709  0.536- 158 1.61 100 1.62 124 1.63 110 1.64 223 2.90 252 2.91 266 3.06
 251  0.987  0.988  0.551-  55 1.63 111 1.65  70 1.68 201 1.69 211 2.39 227 3.06
 252  0.703  0.735  0.434-  89 1.65 122 1.65 140 1.66 124 1.69 250 2.91 219 3.06 238 3.10
 253  0.788  0.058  0.577- 125 1.64  90 1.64 114 1.66 134 1.68 226 3.14 218 3.15
 254  0.456  0.326  0.409- 141 1.66 112 1.66  68 1.67 145 1.69 246 2.87 234 3.07
 255  0.451  0.931  0.595-  63 1.65 197 1.66 113 1.69 203 1.69 256 2.37 269 2.75
 256  0.509  0.037  0.587- 142 1.62 195 1.65 113 1.70 203 1.70 255 2.37 229 2.86 216 3.14
 257  0.244  0.368  0.421-  61 1.65  64 1.66 188 1.66 168 1.71 232 3.11 213 3.14
 258  0.658  0.328  0.450- 161 1.64 149 1.65 157 1.65 164 1.65 240 3.15
 259  0.461  0.314  0.529- 105 1.61 145 1.64  95 1.68 121 1.71
 260  0.337  0.588  0.399- 144 1.65 189 1.67  52 1.67  51 1.68
 261  0.805  0.477  0.580-  69 1.63 165 1.65 148 1.66 106 1.66 266 2.91 231 2.99
 262  0.069  0.897  0.481-  88 1.50  72 1.64 153 1.65  55 1.66 244 3.05 221 3.07 209 3.11
 263  0.212  0.142  0.374-  83 1.65 146 1.65 191 1.66 190 1.69 267 3.12 217 3.14
 264  0.078  0.492  0.495- 102 1.63  76 1.64 171 1.65  86 1.66 268 3.09 206 3.13
 265  0.557  0.850  0.475- 150 1.29 192 1.60  62 1.66 193 1.67 219 2.83 238 3.06
 266  0.719  0.584  0.610-  97 1.64 100 1.65 198 1.65 106 1.65 212 2.87 261 2.91 231 2.92 250 3.06

 267  0.287  0.208  0.459- 167 1.62 116 1.63  61 1.66 146 1.67 245 3.02 263 3.12
 268  0.088  0.623  0.568- 156 1.63 132 1.63 102 1.64 163 1.65 264 3.09 224 3.13 244 3.15
 269  0.355  0.014  0.578- 155 1.63  63 1.66 202 1.69  54 1.70 236 2.38 255 2.75 216 3.14
 270  0.488  0.476  0.572- 127 1.63 121 1.67  79 1.67  71 1.68 247 3.01 271 3.22
 271  0.494  0.488  0.691- 205 1.73 204 1.73  71 1.93 118 1.95 247 3.06 270 3.22

  LATTYP: Found a simple orthorhombic cell.
 ALAT       =    18.1212369514
 B/A-ratio  =     1.2919258579
 C/A-ratio  =     1.4835282260
  
  Lattice vectors:
  
 A1 = (   0.0000000000, -18.1212369514,   0.0000000000)
 A2 = ( -23.4112945954,   0.0000000000,   0.0000000000)
 A3 = (   0.0000000000,   0.0000000000, -26.8833665073)


Analysis of symmetry for initial positions (statically):
=====================================================================
 Subroutine PRICEL returns:
 Original cell was already a primitive cell.
 

 Routine SETGRP: Setting up the symmetry group for a 
 simple orthorhombic supercell.


 Subroutine GETGRP returns: Found  1 space group operations
 (whereof  1 operations were pure point group operations)
 out of a pool of  8 trial point group operations.


The static configuration has the point symmetry C_1 .


Analysis of symmetry for dynamics (positions and initial velocities):
=====================================================================
 Subroutine PRICEL returns:
 Original cell was already a primitive cell.
 

 Routine SETGRP: Setting up the symmetry group for a 
 simple orthorhombic supercell.


 Subroutine GETGRP returns: Found  1 space group operations
 (whereof  1 operations were pure point group operations)
 out of a pool of  8 trial point group operations.


The dynamic configuration has the point symmetry C_1 .


Analysis of constrained symmetry for selective dynamics:
=====================================================================
 Subroutine PRICEL returns:
 Original cell was already a primitive cell.
 

 Routine SETGRP: Setting up the symmetry group for a 
 simple orthorhombic supercell.


 Subroutine GETGRP returns: Found  1 space group operations
 (whereof  1 operations were pure point group operations)
 out of a pool of  8 trial point group operations.


The constrained configuration has the point symmetry C_1 .


 Subroutine INISYM returns: Found  1 space group operations
 (whereof  1 operations are pure point group operations),
 and found     1 'primitive' translations



 KPOINTS: KPOINTS created by Atomic Simulation Env

Automatic generation of k-mesh.
Space group operators:
 irot       det(A)        alpha          n_x          n_y          n_z        tau_x        tau_y        tau_z
    1     1.000000     0.000000     1.000000     0.000000     0.000000     0.000000     0.000000     0.000000
 
 Subroutine IBZKPT returns following result:
 ===========================================
 
 Found      5 irreducible k-points:
 
 Following reciprocal coordinates:
            Coordinates               Weight
  0.000000  0.000000  0.000000      1.000000
  0.333333  0.000000  0.000000      2.000000
  0.000000  0.333333  0.000000      2.000000
  0.333333  0.333333  0.000000      2.000000
 -0.333333  0.333333  0.000000      2.000000
 
 Following cartesian coordinates:
            Coordinates               Weight
  0.000000  0.000000  0.000000      1.000000
  0.014238  0.000000  0.000000      2.000000
  0.000000  0.018395  0.000000      2.000000
  0.014238  0.018395  0.000000      2.000000
 -0.014238  0.018395  0.000000      2.000000
 


--------------------------------------------------------------------------------------------------------




 Dimension of arrays:
   k-points           NKPTS =      5   k-points in BZ     NKDIM =      5   number of bands    NBANDS=    768
   number of dos      NEDOS =    301   number of ions     NIONS =    271
   non local maximal  LDIM  =      6   non local SUM 2l+1 LMDIM =     18
   total plane-waves  NPLWV = ******
   max r-space proj   IRMAX =   2748   max aug-charges    IRDMAX=   9808
   dimension x,y,z NGX =   128 NGY =  100 NGZ =  150
   dimension x,y,z NGXF=   256 NGYF=  200 NGZF=  300
   support grid    NGXF=   256 NGYF=  200 NGZF=  300
   ions per type =               2  48 155  65   1
   NGX,Y,Z   is equivalent  to a cutoff of   9.09,  9.17,  9.28 a.u.
   NGXF,Y,Z  is equivalent  to a cutoff of  18.18, 18.35, 18.55 a.u.

 SYSTEM =  unknown system                          
 POSCAR =   C  H  O Si  W                          

 Startparameter for this run:
   NWRITE =      2    write-flag & timer
   PREC   = normal    normal or accurate (medium, high low for compatibility)
   ISTART =      0    job   : 0-new  1-cont  2-samecut
   ICHARG =      2    charge: 1-file 2-atom 10-const
   ISPIN  =      1    spin polarized calculation?
   LNONCOLLINEAR =      F non collinear calculations
   LSORBIT =      F    spin-orbit coupling
   INIWAV =      1    electr: 0-lowe 1-rand  2-diag
   LASPH  =      T    aspherical Exc in radial PAW
   METAGGA=      F    non-selfconsistent MetaGGA calc.

 Electronic Relaxation 1
   ENCUT  =  500.0 eV  36.75 Ry    6.06 a.u.  42.68 33.04 49.01*2*pi/ulx,y,z
   ENINI  =  500.0     initial cutoff
   ENAUG  =  644.9 eV  augmentation charge cutoff
   NELM   =     60;   NELMIN=  2; NELMDL=  0     # of ELM steps 
   EDIFF  = 0.1E-03   stopping-criterion for ELM
   LREAL  =      T    real-space projection
   NLSPLINE    = F    spline interpolate recip. space projectors
   LCOMPAT=      F    compatible to vasp.4.4
   GGA_COMPAT  = T    GGA compatible to vasp.4.4-vasp.4.6
   LMAXPAW     = -100 max onsite density
   LMAXMIX     =    2 max onsite mixed and CHGCAR
   VOSKOWN=      0    Vosko Wilk Nusair interpolation
   ROPT   =   -0.00050  -0.00050  -0.00050  -0.00050
   ROPT   =   -0.00050
 Ionic relaxation
   EDIFFG = -.5E-01   stopping-criterion for IOM
   NSW    =    150    number of steps for IOM
   NBLOCK =      1;   KBLOCK =    150    inner block; outer block 
   IBRION =      2    ionic relax: 0-MD 1-quasi-New 2-CG
   NFREE  =      1    steps in history (QN), initial steepest desc. (CG)
   ISIF   =      0    stress and relaxation
   IWAVPR =     11    prediction:  0-non 1-charg 2-wave 3-comb
   ISYM   =      2    0-nonsym 1-usesym 2-fastsym
   LCORR  =      T    Harris-Foulkes like correction to forces

   POTIM  = 0.5000    time-step for ionic-motion
   TEIN   =    0.0    initial temperature
   TEBEG  =    0.0;   TEEND  =   0.0 temperature during run
   SMASS  =  -3.00    Nose mass-parameter (am)
   estimated Nose-frequenzy (Omega)   =  0.10E-29 period in steps =****** mass=  -0.125E-25a.u.
   SCALEE = 1.0000    scale energy and forces
   NPACO  =    256;   APACO  = 16.0  distance and # of slots for P.C.
   PSTRESS=    0.0 pullay stress

  Mass of Ions in am
   POMASS =  12.01  1.00 16.00 28.09183.85
  Ionic Valenz
   ZVAL   =   4.00  1.00  6.00  4.00  6.00
  Atomic Wigner-Seitz radii
   RWIGS  =  -1.00 -1.00 -1.00 -1.00 -1.00
  virtual crystal weights 
   VCA    =   1.00  1.00  1.00  1.00  1.00
   NELECT =    1252.0000    total number of electrons
   NUPDOWN=      -1.0000    fix difference up-down

 DOS related values:
   EMIN   =  10.00;   EMAX   =-10.00  energy-range for DOS
   EFERMI =   0.00
   ISMEAR =     0;   SIGMA  =   0.20  broadening in eV -4-tet -1-fermi 0-gaus

 Electronic relaxation 2 (details)
   IALGO  =     68    algorithm
   LDIAG  =      T    sub-space diagonalisation (order eigenvalues)
   LSUBROT=      F    optimize rotation matrix (better conditioning)
   TURBO    =      0    0=normal 1=particle mesh
   IRESTART =      0    0=no restart 2=restart with 2 vectors
   NREBOOT  =      0    no. of reboots
   NMIN     =      0    reboot dimension
   EREF     =   0.00    reference energy to select bands
   IMIX   =      4    mixing-type and parameters
     AMIX     =   0.40;   BMIX     =  1.00
     AMIX_MAG =   1.60;   BMIX_MAG =  1.00
     AMIN     =   0.10
     WC   =   100.;   INIMIX=   1;  MIXPRE=   1;  MAXMIX= -45

 Intra band minimization:
   WEIMIN = 0.0010     energy-eigenvalue tresh-hold
   EBREAK =  0.33E-07  absolut break condition
   DEPER  =   0.30     relativ break condition  

   TIME   =   0.40     timestep for ELM

  volume/ion in A,a.u.               =      42.09       284.00
  Fermi-wavevector in a.u.,A,eV,Ry     =   0.783870  1.481299  8.360126  0.614452
  Thomas-Fermi vector in A             =   1.887886

 Write flags
   LWAVE        =      F    write WAVECAR
   LDOWNSAMPLE  =      F    k-point downsampling of WAVECAR
   LCHARG       =      F    write CHGCAR
   LVTOT        =      F    write LOCPOT, total local potential
   LVHAR        =      F    write LOCPOT, Hartree potential only
   LELF         =      F    write electronic localiz. function (ELF)
   LORBIT       =      0    0 simple, 1 ext, 2 COOP (PROOUT), +10 PAW based schemes


 Dipole corrections
   LMONO  =      F    monopole corrections only (constant potential shift)
   LDIPOL =      T    correct potential (dipole corrections)
   IDIPOL =      3    1-x, 2-y, 3-z, 4-all directions 
   EPSILON=  1.0000000 bulk dielectric constant

 Exchange correlation treatment:
   GGA     =    RP    GGA type
   LEXCH   =     9    internal setting for exchange type
   VOSKOWN=      0    Vosko Wilk Nusair interpolation
   LHFCALC =     F    Hartree Fock is set to
   LHFONE  =     F    Hartree Fock one center treatment
   AEXX    =    0.0000 exact exchange contribution

 Linear response parameters
   LEPSILON=     F    determine dielectric tensor
   LRPA    =     F    only Hartree local field effects (RPA)
   LNABLA  =     F    use nabla operator in PAW spheres
   LVEL    =     F    velocity operator in full k-point grid
   LINTERFAST=   F  fast interpolation
   KINTER  =     0    interpolate to denser k-point grid
   CSHIFT  =0.1000    complex shift for real part using Kramers Kronig
   OMEGAMAX=  -1.0    maximum frequency
   DEG_THRESHOLD= 0.2000000E-02 threshold for treating states as degnerate
   RTIME   =   -0.100 relaxation time in fs
  (WPLASMAI=    0.000 imaginary part of plasma frequency in eV, 0.658/RTIME)
   DFIELD  = 0.0000000 0.0000000 0.0000000 field for delta impulse in time

 Orbital magnetization related:
   ORBITALMAG=     F  switch on orbital magnetization
   LCHIMAG   =     F  perturbation theory with respect to B field
   DQ        =  0.001000  dq finite difference perturbation B field
   LLRAUG    =     F  two centre corrections for induced B field



--------------------------------------------------------------------------------------------------------


 conjugate gradient relaxation of ions
   using selective dynamics as specified on POSCAR
 charge density and potential will be updated during run
 non-spin polarized calculation
 RMM-DIIS sequential band-by-band and
  variant of blocked Davidson during initial phase
 perform sub-space diagonalisation
    before iterative eigenvector-optimisation
 modified Broyden-mixing scheme, WC =      100.0
 initial mixing is a Kerker type mixing with AMIX =  0.4000 and BMIX =      1.0000
 Hartree-type preconditioning will be used
 using additional bands          142
 real space projection scheme for non local part
 use partial core corrections
 calculate Harris-corrections to forces   (improved forces if not selfconsistent)
 use gradient corrections 
 use of overlap-Matrix (Vanderbilt PP)
 Gauss-broadening in eV      SIGMA  =   0.20


--------------------------------------------------------------------------------------------------------


  energy-cutoff  :      500.00
  volume of cell :    11405.04
      direct lattice vectors                 reciprocal lattice vectors
    23.411294595  0.000000000  0.000000000     0.042714426  0.000000000  0.000000000
     0.000000000 18.121236951  0.000000000     0.000000000  0.055183871  0.000000000
     0.000000000  0.000000000 26.883366507     0.000000000  0.000000000  0.037197722

  length of vectors
    23.411294595 18.121236951 26.883366507     0.042714426  0.055183871  0.037197722



 k-points in units of 2pi/SCALE and weight: KPOINTS created by Atomic Simulation Env
   0.00000000  0.00000000  0.00000000       0.111
   0.01423814  0.00000000  0.00000000       0.222
   0.00000000  0.01839462  0.00000000       0.222
   0.01423814  0.01839462  0.00000000       0.222
  -0.01423814  0.01839462  0.00000000       0.222

 k-points in reciprocal lattice and weights: KPOINTS created by Atomic Simulation Env
   0.00000000  0.00000000  0.00000000       0.111
   0.33333333  0.00000000  0.00000000       0.222
   0.00000000  0.33333333  0.00000000       0.222
   0.33333333  0.33333333  0.00000000       0.222
  -0.33333333  0.33333333  0.00000000       0.222

 position of ions in fractional coordinates (direct lattice) 
   0.45797965  0.57796352  0.79987969
   0.47207837  0.51004723  0.81569317
   0.76049539  0.10271182  0.65121670
   0.92633714  0.27639926  0.35633493
   0.79324916  0.20500919  0.37345652
   0.97444858  0.94133890  0.32530279
   0.62564213  0.96120315  0.37523120
   0.82044787  0.99273696  0.36899263
   0.74990254  0.13890905  0.45803819
   0.91521903  0.24712559  0.51011826
   0.58340233  0.30199384  0.30592717
   0.89254228  0.33284254  0.61534425
   0.59039530  0.35802632  0.61413995
   0.59319048  0.86824721  0.57745530
   0.03553644  0.33596803  0.65060421
   0.93517998  0.41724452  0.45410146
   0.74604785  0.52804229  0.42248819
   0.81026104  0.39212097  0.64083697
   0.59101149  0.56641312  0.37803474
   0.71834326  0.64366308  0.38346059
   0.84106238  0.54015689  0.41959617
   0.00467402  0.60152844  0.35777830
   0.82826817  0.71008697  0.46794226
   0.87014730  0.59176273  0.72383071
   0.51989978  0.98329506  0.42170307
   0.22300404  0.97788513  0.39320502
   0.21628316  0.23558175  0.31923033
   0.15741052  0.32753653  0.27898292
   0.34145634  0.15331600  0.33077276
   0.22262533  0.04348922  0.32273843
   0.51115898  0.82213028  0.54656356
   0.37955382  0.23942493  0.64728258
   0.24459109  0.09047637  0.59761968
   0.31529044  0.48486676  0.44243467
   0.40886565  0.43646515  0.40569060
   0.39840897  0.79084390  0.38878680
   0.24411183  0.65316037  0.29432688
   0.31165085  0.41620601  0.36925764
   0.40538376  0.58200995  0.33881989
   0.13926709  0.48570394  0.35192946
   0.59317881  0.69571742  0.35239799
   0.46891630  0.85915776  0.44382838
   0.12141975  0.31886611  0.60924960
   0.07237111  0.66154730  0.64599016
   0.24144983  0.38020906  0.68231067
   0.24555365  0.81512660  0.66848527
   0.49047425  0.61992563  0.79272184
   0.41356096  0.59391719  0.79366110
   0.51655227  0.49400479  0.82131999
   0.43975668  0.46780056  0.82252735
   0.36885120  0.64608539  0.43900002
   0.34672512  0.50176416  0.42038813
   0.86220636  0.56227012  0.69458240
   0.34963820  0.95353339  0.53032969
   0.03348886  0.92962166  0.52882154
   0.63626495  0.07659884  0.48937667
   0.06855561  0.04999572  0.39511073
   0.45180901  0.12729262  0.42059728
   0.80579362  0.21138048  0.48316661
   0.97341342  0.17887568  0.59873143
   0.27467476  0.29690317  0.44851223
   0.55626363  0.77282159  0.44175101
   0.39250585  0.96704410  0.61977265
   0.17742671  0.34769874  0.40527312
   0.86730827  0.68478828  0.63843064
   0.86560548  0.96490723  0.46703846
   0.30095660  0.75866713  0.45792526
   0.42152041  0.25898251  0.37959630
   0.81099998  0.46330622  0.52019702
   0.98432161  0.06989851  0.52110701
   0.51875406  0.45545365  0.62620833
   0.03444587  0.91767806  0.42940526
   0.96294601  0.30092560  0.35125762
   0.06953616  0.33383606  0.37637178
   0.20820513  0.72637459  0.39536010
   0.03881073  0.41683221  0.49910875
   0.23956460  0.28357432  0.58809766
   0.39740345  0.19142477  0.64416031
   0.45506811  0.55623846  0.58488880
   0.90998015  0.74777774  0.55759613
   0.86903674  0.10577364  0.44227833
   0.57248626  0.66506215  0.37613173
   0.14233603  0.15685579  0.37597224
   0.34999481  0.76393125  0.60668631
   0.91090552  0.84277787  0.48317962
   0.06124748  0.53460200  0.44225348
   0.70824850  0.55289685  0.41995768
   0.07539673  0.81453710  0.48299416
   0.70037424  0.82528601  0.43263529
   0.72987788  0.04770453  0.54304141
   0.91888709  0.29911083  0.63190913
   0.73486092  0.85186920  0.61296083
   0.62503142  0.52512430  0.48637871
   0.55648277  0.62743334  0.46724942
   0.42655495  0.24232441  0.55494581
   0.97819956  0.72597393  0.47679564
   0.65489807  0.59336846  0.63370089
   0.39725100  0.74319395  0.51556837
   0.60259954  0.51539575  0.38567099
   0.72024668  0.62972465  0.55736885
   0.14531247  0.36130470  0.61674104
   0.06575084  0.54594270  0.54193598
   0.81870470  0.88296062  0.53662820
   0.82812500  0.35311544  0.45190334
   0.52790642  0.29452400  0.53128418
   0.73872330  0.49874353  0.59641193
   0.55734340  0.17016140  0.39490854
   0.80587355  0.25414287  0.38329286
   0.23735568  0.95098105  0.50791956
   0.69352724  0.77488011  0.54129920
   0.92392248  0.94740257  0.55297807
   0.52564669  0.31551141  0.39855594
   0.46940960  0.98513667  0.54697892
   0.83769912  0.09306457  0.53995001
   0.53781272  0.11414778  0.48623709
   0.35010291  0.18433903  0.43963639
   0.01166979  0.96014420  0.33524376
   0.46143850  0.58518548  0.67867163
   0.65487469  0.92312780  0.37922825
   0.07620281  0.68375655  0.43588102
   0.45350543  0.40015934  0.55370073
   0.71912890  0.69815115  0.37958300
   0.44808539  0.69794690  0.60209452
   0.75246053  0.70705487  0.47629548
   0.77831053  0.11974933  0.62079865
   0.99318408  0.30574377  0.44840298
   0.53260318  0.50644249  0.53006544
   0.81668705  0.49679203  0.42344221
   0.23609533  0.14223421  0.60468966
   0.20344277  0.82843161  0.47053363
   0.24005752  0.55672738  0.52234822
   0.06106588  0.62214915  0.62372119
   0.04598354  0.60007699  0.35417863
   0.80067005  0.97753248  0.60568044
   0.53790038  0.02542779  0.40450275
   0.60541278  0.30995326  0.60499682
   0.86145558  0.00181114  0.36920633
   0.09482078  0.14675313  0.46708233
   0.17152015  0.20227509  0.53064353
   0.64089812  0.70216902  0.45481558
   0.43669725  0.40749878  0.38641325
   0.57460131  0.05542467  0.57122223
   0.15134721  0.59113832  0.38895836
   0.26764926  0.60006783  0.39230630
   0.44016793  0.31992848  0.47032443
   0.23791913  0.15624142  0.42990119
   0.07304947  0.14786022  0.56245062
   0.84578310  0.54716763  0.59769889
   0.62108890  0.27767017  0.41090545
   0.60257646  0.88925696  0.46722346
   0.03129486  0.19302012  0.38899188
   0.60795654  0.19258923  0.54765653
   0.13270919  0.93608494  0.47948708
   0.08008752  0.27805499  0.51173837
   0.37323537  0.09979631  0.56896907
   0.06639876  0.69420724  0.53554517
   0.66639785  0.41311517  0.43001156
   0.79981929  0.72810270  0.56458468
   0.70374803  0.95493873  0.47018456
   0.59803986  0.63122028  0.55334095
   0.72274977  0.29141495  0.45166811
   0.97759898  0.31192594  0.54736576
   0.15803395  0.62706154  0.57036488
   0.63324331  0.32451337  0.50780070
   0.82410146  0.39914844  0.60709924
   0.95848767  0.02497334  0.41695300
   0.28227514  0.19341178  0.51864541
   0.24916702  0.44076318  0.46105570
   0.27194252  0.84618259  0.56708068
   0.20357762  0.68330346  0.48688872
   0.14703292  0.47380017  0.49254493
   0.22516382  0.42131560  0.55688831
   0.91132645  0.45047489  0.47371881
   0.86969764  0.70229041  0.46415352
   0.73802968  0.09056491  0.44522965
   0.22209290  0.92751149  0.40794682
   0.24925933  0.40059824  0.64970471
   0.63009899  0.88133604  0.59279970
   0.41013273  0.78679269  0.42343739
   0.91768082  0.19376859  0.50824515
   0.13245653  0.44126641  0.33227266
   0.15505715  0.30125355  0.31056042
   0.37291461  0.12863734  0.34795342
   0.03498317  0.28882755  0.63341719
   0.57259873  0.25459849  0.32009968
   0.24462399  0.76968692  0.64945722
   0.20728377  0.64613535  0.31036906
   0.27528388  0.38992159  0.36737583
   0.36526028  0.59531693  0.34222079
   0.22629032  0.05391112  0.35811888
   0.24111280  0.19380852  0.32934297
   0.50118239  0.89003192  0.45484168
   0.55008637  0.82463832  0.53412371
   0.54539906  0.64529941  0.63416509
   0.47878286  0.11762111  0.59651843
   0.26227296  0.69125981  0.56899018
   0.44416665  0.84175974  0.58281167
   0.76648248  0.61750331  0.64973103
   0.84505954  0.83131982  0.62299153
   0.64000519  0.73811779  0.62039621
   0.00835543  0.03101792  0.60312984
   0.28543317  0.99805515  0.59343383
   0.50443672  0.96776341  0.62949342
   0.44474733  0.42500591  0.71296593
   0.55498644  0.48487721  0.72778711
   0.08313475  0.60415060  0.40641308
   0.40900330  0.76130734  0.57528925
   0.84167329  0.43918341  0.46783897
   0.01699896  0.98821233  0.39361135
   0.01460967  0.28192057  0.39108141
   0.00961389  0.11243612  0.57243678
   0.61010346  0.65592162  0.61088106
   0.21392540  0.47387571  0.50963606
   0.91497160  0.75329123  0.49625454
   0.52048801  0.10818592  0.42598659
   0.41905460  0.16509417  0.58909700
   0.08336200  0.13690237  0.40698087
   0.70180740  0.04257655  0.48732303
   0.66496882  0.89576776  0.43747644
   0.65000821  0.50175735  0.43015089
   0.19837012  0.91021253  0.46399069
   0.21357526  0.36436331  0.60298709
   0.67375043  0.81219601  0.59428929
   0.21647296  0.63914109  0.53848419
   0.36869859  0.73285803  0.45920930
   0.79732313  0.88738338  0.59563197
   0.87976905  0.91006572  0.51199593
   0.57649388  0.57257136  0.51179774
   0.58975274  0.11273139  0.52530826
   0.85803181  0.14984353  0.49517595
   0.83641597  0.60392075  0.64536156
   0.13364799  0.35804920  0.35687228
   0.79056476  0.27766954  0.44187265
   0.39908557  0.17522514  0.39600320
   0.85642440  0.74956871  0.59688008
   0.28333221  0.93123452  0.54904364
   0.02298420  0.32817781  0.50224551
   0.57446885  0.69322038  0.43556436
   0.23015042  0.75033079  0.45196954
   0.59402544  0.28097514  0.54815611
   0.97547490  0.26963800  0.60269690
   0.88881583  0.02313929  0.42420019
   0.10474641  0.19328211  0.51767316
   0.04805513  0.73076739  0.48263019
   0.23200343  0.20365067  0.56091826
   0.56131728  0.25551557  0.38122611
   0.47756310  0.62297011  0.62379339
   0.28084592  0.76805275  0.59739461
   0.20841029  0.64113014  0.37179454
   0.74102126  0.70917954  0.53600627
   0.98675315  0.98799667  0.55054314
   0.70301403  0.73454845  0.43426040
   0.78761752  0.05818183  0.57684405
   0.45622337  0.32618189  0.40928789
   0.45087280  0.93101754  0.59539296
   0.50931810  0.03669337  0.58663616
   0.24415662  0.36813662  0.42094710
   0.65843481  0.32773241  0.45034791
   0.46071515  0.31378345  0.52864921
   0.33720884  0.58767284  0.39908301
   0.80502616  0.47711667  0.57976789
   0.06911926  0.89658945  0.48050551
   0.21181705  0.14218462  0.37359659
   0.07814232  0.49171529  0.49468762
   0.55747966  0.85007039  0.47473025
   0.71937590  0.58398784  0.61025560
   0.28655159  0.20783203  0.45911077
   0.08779820  0.62280085  0.56759224
   0.35451848  0.01403190  0.57833951
   0.48755899  0.47637338  0.57165970
   0.49433046  0.48815077  0.69093396

 position of ions in cartesian coordinates  (Angst):
  10.72189656 10.47341388 21.50345892
  11.05196583  9.24268662 21.92857834
  17.80418150  1.86126515 17.50689726
  21.68675178  5.00869645  9.57948250
  18.57098989  3.71502016 10.03976840
  22.81310280 17.05822518  8.74523415
  14.64709229 17.41818996 10.08747787
  19.20774671 17.98962166  9.91976410
  17.55618933  2.51720383 12.31360861
  21.42646240  4.47822134 13.71369628
  13.65820385  5.47250196  8.22435231
  20.89557031  6.03151851 16.54252510
  13.82191819  6.48787969 16.51014924
  13.88735698 15.73371348 15.52394255
   0.83195403  6.08815629 17.49043139
  21.89377392  7.56098683 12.20777585
  17.46594593  9.56877942 11.35790489
  18.96926001  7.10571708 17.22785504
  13.83634400 10.26410640 10.16284657
  16.81734556 11.66397121 10.30871170
  19.69035921  9.78831102 11.28015755
   0.10942479 10.90043948  9.61828518
  19.39083007 12.86765422 12.57986315
  20.37127477 10.72347259 19.45900634
  12.17152696 17.81852272 11.33679820
   5.22081329 17.72048816 10.57067472
   5.06346875  4.26903277  8.58198589
   3.68518402  5.93536699  7.50000000
   7.99393508  2.77827558  8.89228530
   5.21194718  0.78807849  8.67629559
  11.96689356 14.89801768 14.69346846
   8.88584631  4.33867584 17.40113473
   5.72619402  1.63954376 16.06602880
   7.38135736  8.78638545 11.89413327
   9.57207423  7.90928848 10.90632902
   9.32726980 14.33106976 10.45189795
   5.71497386 11.83607391  7.91249741
   7.29614986  7.54216771  9.92688859
   9.49055870 10.54674019  9.10861924
   3.26042284  8.80155622  9.46104865
  13.88708395 12.60726029  9.47364424
  10.97793760 15.56900143 11.93160111
   2.84259356  5.77824830 16.37868021
   1.69430133 11.98805532 17.36639015
   5.65265302  6.88985842 18.34280794
   5.74872878 14.77110234 17.97113448
  11.48263719 11.23381925 21.31103176
   9.68199758 10.76251418 21.33628230
  12.09315747  8.95197788 22.07984638
  10.29527317  8.47712485 22.11230425
   8.63528415 11.70786649 11.80179838
   8.11728389  9.09258730 11.30144811
  20.18536718 10.18903011 18.67271323
   8.18548281 17.27920447 14.25704739
   0.78401751 16.84589438 14.21650317
  14.89578620  1.38806575 13.15609244
   1.60497569  0.90598423 10.62190669
  10.57743385  2.30669973 11.30707087
  18.86467176  3.83047568 12.98914499
  22.78886837  3.24144864 16.09591655
   6.43049175  5.38025263 12.05751853
  13.02285182 14.00448309 11.87575437
   9.18907011 17.52403531 16.66157519
   4.15378893  6.30073134 10.89510594
  20.30480944 12.40921060 17.16316498
  20.26494486 17.48531250 12.55556607
   7.04578374 13.74798683 12.31057251
   9.86833859  4.69308347 10.20482654
  18.98655934  8.39568184 13.98464716
  23.04424315  1.26664743 14.00911072
  12.14470421  8.25338355 16.83458798
   0.80642251 16.62946152 11.54385891
  22.54381272  5.45314416  9.44298747
   1.62793150  6.04952236 10.11814055
   4.87435154 13.16280605 10.62861051
   0.90860946  7.55351526 13.41772355
   5.60851740  5.13871741 15.81004486
   9.30372933  3.46885362 17.31719783
  10.65373366 10.07972888 15.72377999
  21.30381327 13.55065765 14.99006116
  20.34527512  1.91674915 11.88993046
  13.40264455 12.05174878 10.11168720
   3.33227067  2.84242101 10.10739962
   8.19383160 13.84337924 16.30977039
  21.32547743 15.27217742 12.98949491
   1.43388277  9.68764954 11.88926245
  16.58101419 10.01917478 11.28987623
   1.76513495 14.76041980 12.98450890
  16.39666765 14.95520335 11.63069310
  17.08738602  0.86446511 14.59878117
  21.51233633  5.42025825 16.98784465
  17.20404553 15.43692370 16.47845056
  14.63279477  9.51590182 13.07549710
  13.02798199 11.36986815 12.56123752
   9.98620351  4.39121800 14.91881170
  22.90091812 13.15554559 12.81787194
  15.33201156 10.75257045 17.03601331
   9.30016022 13.46759359 13.86021350
  14.10763528  9.33960846 10.36813464
  16.86190731 11.41138965 14.98395105
   3.40195301  6.54728808 16.58007539
   1.53931231  9.89315707 14.56906360
  19.16693692 16.00033864 14.42637263
  19.38747831  6.39888853 12.14868300
  12.35897278  5.33713920 14.28270740
  17.29446874  9.03784974 16.03356063
  13.04813063  3.08353506 10.61647095
  18.86654311  4.60538309 10.30420244
   5.55680387 17.23295287 13.65458756
  16.23637055 14.04178605 14.55194485
  21.63022134 17.16810646 14.86591212
  12.30606953  5.71745711 10.71452528
  10.98948652 17.85189496 14.70463472
  19.61162078  1.68644514 14.51567414
  12.59089205  2.06849905 13.07168996
   8.19636238  3.34045120 11.81890631
   0.27320492 17.39900047  9.01248080
  10.80287255 10.60428481 18.24497823
  15.33146429 16.72821759 10.19493214
   1.78400646 12.39051451 11.71794928
  10.61714914  7.25138229 14.88533977
  16.83573864 12.65136236 10.20446890
  10.49025906 12.64766115 16.18632776
  17.61607508 12.81270885 12.80442605
  18.22125706  2.17000590 16.68915764
  23.25172517  5.54045528 12.05458163
  12.46892999  9.17736438 14.24994359
  19.11970120  9.00248609 11.38355200
   5.52729727  2.57745977 16.25609380
   4.76285871 15.01220553 12.64952801
   5.62005731 10.08858871 14.04247871
   1.42963140 11.27411221 16.76772543
   1.07653421 10.87413728  9.52151395
  18.74472238 17.71409762 16.28272918
  12.59294421  0.46078296 10.87439573
  14.17349684  5.61673653 16.26435113
  20.16779027  0.03282019  9.92550906
   2.21987713  2.65934826 12.55674536
   4.01550876  3.66547484 14.26548444
  15.00425477 12.72417111 12.22697399
  10.22364801  7.38438188 10.38808912
  13.45216053  1.00436356 15.35637650
   3.54323422 10.71215755 10.45651017
   6.26601563 10.87397128 10.54651395
  10.30490104  5.79749975 12.64390410
   5.56999494  2.83128788 11.55719116
   1.71018268  2.67941006 15.12056621
  19.80087738  9.91535425 16.06815828
  14.54049513  5.03172698 11.04652184
  14.10709506 16.11443610 12.56053950
   0.73265317  3.49776341 10.45741115
  14.23304977  3.48995501 14.72285119
   3.10689405 16.96301700 12.89022683
   1.87495264  5.03870030 13.75725021
   8.73792331  1.80843251 15.29580391
   1.55448095 12.57989389 14.39725711
  15.60123635  7.48615794 11.56015827
  18.72480502 13.19412146 15.17793691
  16.47565238 17.30467098 12.64014391
  14.00088724 11.43849227 14.87566767
  16.92050774  5.28079935 12.14235921
  22.88685780  5.65248386 14.71503424
   3.69977943 11.36313066 15.33332809
  14.82504575  5.88058376 13.65139239
  19.29328195  7.23306343 16.32087141
  22.43943712  0.45254781 11.20910044
   6.60842646  3.50486076 13.94293456
   5.83332246  7.98717411 12.39472924
   6.36652656 15.33387528 15.24503783
   4.76601558 12.38230400 13.08920785
   3.44223104  8.58584519 13.24126574
   5.27137653  7.63475981 14.97103248
  21.33533191  8.16316229 12.73515651
  20.36074776 12.72637085 12.47800922
  17.27823017  1.64114827 11.96927179
   5.19948242 16.80765540 10.96698378
   5.83548356  7.25933556 17.46624985
  14.75143315 15.97089927 15.93645147
   9.60173825 14.25765672 11.38342242
  21.48409604  3.51132652 13.66334053
   3.10097877  7.99629316  8.93260776
   3.63008860  5.45908697  8.34890949
   8.73041388  2.33106769  9.35415932
   0.81900118  5.23391239 17.02838642
  13.40527753  4.61363951  8.60535697
   5.72696435 13.94767905 17.45959641
   4.85278134 11.70877169  8.34376522
   6.44475201  7.06586161  9.87629901
   8.55121604 10.78787911  9.20004704
   5.29774931  0.97693617  9.62744117
   5.64476287  3.51205017  8.85384768
  11.73332868 16.12847927 12.22767567
  12.87823399 14.94346644 14.35904353
  12.76849796 11.69362354 17.04849247
  11.20892658  2.13144000 16.03642366
   6.14014950 12.52648289 15.29637149
  10.39851633 15.25372773 15.66793979
  17.94434705 11.18992379 17.46695739
  19.78393779 15.06454346 16.74810963
  14.98334999 13.37560736 16.67833858
   0.19561139  0.56208311 16.21416049
   6.68235999 18.08599389 15.95349903
  11.80951660 17.53707004 16.92290234
  10.41211069  7.70163278 19.16692448
  12.99295107  8.78657482 19.56536768
   1.94629206 10.94795611 10.92575188
   9.57529671 13.79583073 15.46571189
  19.70466128  7.95854665 12.57708649
   0.39796771 17.90762987 10.58159830
   0.34203140  5.10874943 10.51358498
   0.22507362  2.03748161 15.38902766
  14.28331179 11.88611109 16.42253946
   5.00827054  8.58721408 13.70073291
  21.42066958 13.65056892 13.34099278
  12.18529815  1.96046272 11.45195358
   9.81061060  2.99171064 15.83691049
   1.95161226  2.48084033 10.94101594
  16.43021986  0.77153975 13.10088356
  15.56778101 16.23241981 11.76083937
  15.21753375  9.09246388 11.56390395
   4.64410122 16.49417687 12.47363180
   5.00007329  6.60271387 16.21032286
  15.77336974 14.71799630 15.97649672
   5.06791217 11.58202706 14.47626788
   8.63171123 13.28029399 12.34509184
  18.66636667 16.08048451 16.01259257
  20.59653239 16.49151660 13.76417430
  13.49646813 10.37570123 13.75884623
  13.80687503  2.04283231 14.12205449
  20.08763546  2.71535007 13.31199648
  19.58158058 10.94379108 17.34949136
   3.12887244  6.48829437  9.59392828
  18.50814441  5.03171555 11.87902451
   9.34310973  3.17529627 10.64589911
  20.05000393 13.58311213 16.04614592
   6.63317387 16.87512138 14.76014129
   0.53808989  5.94698786 13.50205012
  13.44905956 12.56201070 11.70943634
   5.38811934 13.59692207 12.15046292
  13.90690450  5.09161707 14.73628172
  22.83713016  4.88617417 16.20252177
  20.80832917  0.41931263 11.40392910
   2.45224909  3.50251083 13.91679730
   1.12503278 13.24240901 12.97472440
   5.43150071  3.69040199 15.07937108
  13.14116409  4.63025810 10.24864117
  11.18037037 11.28898898 16.76966629
   6.57496668 13.91806592 16.05997813
   4.87915478 11.61807118  9.99508876
  17.34826702 12.85121049 14.40965308
  23.10116879 17.90372174 14.80045290
  16.45846847 13.31092649 11.67438144
  18.43914571  1.05432671 15.50751014
  10.68077963  5.91081932 11.00303640
  10.55551601 16.87118944 16.00616706
  11.92379614  0.66492920 15.77075496
   5.71602256  6.67109091 11.31647527
  15.41481135  5.93891659 12.10686792
  10.78593808  5.68614421 14.21187056
   7.89449540 10.64935873 10.72869482
  18.84670460  8.64594429 15.58611261
   1.61817130 16.24730989 12.91760565
   4.95891129  2.57656113 10.04353415
   1.82941299  8.91048929 13.29886860
  13.05132049 15.40432703 12.76234739
  16.84152113 10.58258210 16.40572498
   6.70854375  3.76617353 12.34244318
   2.05546950 11.28592185 15.25879029
   8.29973646  0.25427533 15.54771302
  11.41438713  8.63247498 15.36813733
  11.57291599  8.84589573 18.57463096



--------------------------------------------------------------------------------------------------------


 k-point  1 :   0.0000 0.0000 0.0000  plane waves:  289505
 k-point  2 :   0.3333 0.0000 0.0000  plane waves:  289422
 k-point  3 :   0.0000 0.3333 0.0000  plane waves:  289550
 k-point  4 :   0.3333 0.3333 0.0000  plane waves:  289551
 k-point  5 :  -0.3333 0.3333 0.0000  plane waves:  289551

 maximum and minimum number of plane-waves per node :     72451    72309

 maximum number of plane-waves:    289551
 maximum index in each direction: 
   IXMAX=   43   IYMAX=   33   IZMAX=   49
   IXMIN=  -43   IYMIN=  -33   IZMIN=  -49


 real space projection operators:
  total allocation   :      13562.62 KBytes
  max/ min on nodes  :       3394.30       3389.33


 parallel 3D FFT for wavefunctions:
    minimum data exchange during FFTs selected (reduces bandwidth)
 parallel 3D FFT for charge:
    minimum data exchange during FFTs selected (reduces bandwidth)


 total amount of memory used by VASP MPI-rank0   697018. kBytes
=======================================================================

   base      :      30000. kBytes
   nonlr-proj:      16660. kBytes
   fftplans  :      30982. kBytes
   grid      :      57864. kBytes
   one-center:       1057. kBytes
   wavefun   :     560455. kBytes

     INWAV:  cpu time    0.0001: real time    0.0001
 Broyden mixing: mesh for mixing (old mesh)
   NGX = 85   NGY = 67   NGZ = 99
  (NGX  =256   NGY  =200   NGZ  =300)
  gives a total of 563805 points

 initial charge density was supplied:
 charge density of overlapping atoms calculated
 number of electron    1252.0000000 magnetization 
 keeping initial charge density in first step


--------------------------------------------------------------------------------------------------------


 Maximum index for non-local projection operator          647
 Maximum index for augmentation-charges          537 (set IRDMAX)


--------------------------------------------------------------------------------------------------------


 First call to EWALD:  gamma=   0.079
 Maximum number of real-space cells 3x 3x 2
 Maximum number of reciprocal cells 3x 2x 3

    FEWALD:  cpu time    0.0280: real time    0.0281


--------------------------------------- Iteration      1(   1)  ---------------------------------------


    POTLOK:  cpu time    0.2767: real time    0.2851
    SETDIJ:  cpu time    0.5716: real time    0.5734
     EDDAV:  cpu time   80.9818: real time   81.2869
       DOS:  cpu time    0.0020: real time    0.0020
    --------------------------------------------
      LOOP:  cpu time   81.8321: real time   82.1474

 eigenvalue-minimisations  :  8568
 total energy-change (2. order) : 0.1281481E+05  (-0.4908017E+05)
 number of electron    1252.0000000 magnetization 
 augmentation part     1252.0000000 magnetization 

 DIPCOR: dipole corrections for dipol
 direction  3 min pos    67,
 dipolmoment           0.000000      0.000000      0.554577 electrons x Angstroem
 Tr[quadrupol]    -94645.680341

 energy correction for charged system         0.000000 eV
 dipol+quadrupol energy correction           -0.002501 eV
 added-field ion interaction         65.841410 eV  (added to PSCEN)


 Free energy of the ion-electron system (eV)
  ---------------------------------------------------
  alpha Z        PSCENC =       550.62775324
  Ewald energy   TEWEN  =    307988.99731431
  -Hartree energ DENC   =   -370313.54917306
  -exchange      EXHF   =         0.00000000
  -V(xc)+E(xc)   XCENC  =      3769.00350073
  PAW double counting   =     60076.77464710   -59094.97975615
  entropy T*S    EENTRO =        -1.65052557
  eigenvalues    EBANDS =     -4955.28627524
  atomic energy  EATOM  =     74794.86799615
  Solvation  Ediel_sol  =         0.00000000
  ---------------------------------------------------
  free energy    TOTEN  =     12814.80548150 eV

  energy without entropy =    12816.45600707  energy(sigma->0) =    12815.63074429


--------------------------------------------------------------------------------------------------------




--------------------------------------- Iteration      1(   2)  ---------------------------------------


     EDDAV:  cpu time   97.4993: real time   97.8600
       DOS:  cpu time    0.0011: real time    0.0011
    --------------------------------------------
      LOOP:  cpu time   97.5004: real time   97.8612

 eigenvalue-minimisations  : 10768
 total energy-change (2. order) :-0.1216303E+05  (-0.1176715E+05)
 number of electron    1252.0000000 magnetization 
 augmentation part     1252.0000000 magnetization 

 DIPCOR: dipole corrections for dipol
 direction  3 min pos    67,
 dipolmoment           0.000000      0.000000      0.554577 electrons x Angstroem
 Tr[quadrupol]    -94645.680341

 energy correction for charged system         0.000000 eV
 dipol+quadrupol energy correction           -0.002501 eV
 added-field ion interaction         65.841410 eV  (added to PSCEN)


 Free energy of the ion-electron system (eV)
  ---------------------------------------------------
  alpha Z        PSCENC =       550.62775324
  Ewald energy   TEWEN  =    307988.99731431
  -Hartree energ DENC   =   -370313.54917306
  -exchange      EXHF   =         0.00000000
  -V(xc)+E(xc)   XCENC  =      3769.00350073
  PAW double counting   =     60076.77464710   -59094.97975615
  entropy T*S    EENTRO =        -0.00000000
  eigenvalues    EBANDS =    -17119.96268927
  atomic energy  EATOM  =     74794.86799615
  Solvation  Ediel_sol  =         0.00000000
  ---------------------------------------------------
  free energy    TOTEN  =       651.77959304 eV

  energy without entropy =      651.77959304  energy(sigma->0) =      651.77959304


--------------------------------------------------------------------------------------------------------




--------------------------------------- Iteration      1(   3)  ---------------------------------------


     EDDAV:  cpu time   83.6873: real time   84.0016
       DOS:  cpu time    0.0011: real time    0.0011
    --------------------------------------------
      LOOP:  cpu time   83.6884: real time   84.0027

 eigenvalue-minimisations  :  8960
 total energy-change (2. order) :-0.2643195E+04  (-0.2633874E+04)
 number of electron    1252.0000000 magnetization 
 augmentation part     1252.0000000 magnetization 

 DIPCOR: dipole corrections for dipol
 direction  3 min pos    67,
 dipolmoment           0.000000      0.000000      0.554577 electrons x Angstroem
 Tr[quadrupol]    -94645.680341

 energy correction for charged system         0.000000 eV
 dipol+quadrupol energy correction           -0.002501 eV
 added-field ion interaction         65.841410 eV  (added to PSCEN)


 Free energy of the ion-electron system (eV)
  ---------------------------------------------------
  alpha Z        PSCENC =       550.62775324
  Ewald energy   TEWEN  =    307988.99731431
  -Hartree energ DENC   =   -370313.54917306
  -exchange      EXHF   =         0.00000000
  -V(xc)+E(xc)   XCENC  =      3769.00350073
  PAW double counting   =     60076.77464710   -59094.97975615
  entropy T*S    EENTRO =        -0.00000000
  eigenvalues    EBANDS =    -19763.15776517
  atomic energy  EATOM  =     74794.86799615
  Solvation  Ediel_sol  =         0.00000000
  ---------------------------------------------------
  free energy    TOTEN  =     -1991.41548285 eV

  energy without entropy =    -1991.41548285  energy(sigma->0) =    -1991.41548285


--------------------------------------------------------------------------------------------------------




--------------------------------------- Iteration      1(   4)  ---------------------------------------


     EDDAV:  cpu time   82.6792: real time   82.9937
       DOS:  cpu time    0.0011: real time    0.0011
    --------------------------------------------
      LOOP:  cpu time   82.6803: real time   82.9948

 eigenvalue-minimisations  :  8824
[...]
      7.04578     13.74799     12.31057        -0.247377     -0.081926     -0.043662
      9.86834      4.69308     10.20483         0.428114      0.079900      0.525310
     18.98681      8.39557     13.98481         0.012203     -0.002915      0.001515
     23.04409      1.26651     14.00918        -0.010901      0.001975      0.001415
     12.14465      8.25346     16.83458        -0.001776      0.003243     -0.006680
      0.80642     16.62946     11.54386        -0.101707      0.483116     -0.271324
     22.54381      5.45314      9.44299         0.197373     -0.221360      0.378100
      1.62793      6.04952     10.11814         0.298469     -0.133482     -0.016919
      4.87435     13.16281     10.62861         0.440581     -0.125108      0.422731
      0.90861      7.55352     13.41772         0.442597     -0.102154      0.146322
      5.60854      5.13887     15.80993         0.002100      0.003090     -0.008307
      9.30350      3.46875     17.31699        -0.017990      0.008799     -0.006663
     10.65358     10.07957     15.72361        -0.008635     -0.001922     -0.004223
     21.30369     13.55080     14.98987        -0.003253      0.008962     -0.013080
     20.34528      1.91675     11.88993        -0.103844     -0.064149      0.405349
     13.40264     12.05175     10.11169        -0.305523      0.153049      0.071425
      3.33227      2.84242     10.10740        -0.014251     -0.042342      0.203269
      8.19370     13.84285     16.31000         0.011859     -0.000555      0.001674
     21.32548     15.27218     12.98949         0.295879     -1.569055      0.111000
      1.43388      9.68765     11.88926         0.528417      0.291759      0.061578
     16.58101     10.01917     11.28988        -0.189659     -0.555089     -0.019623
      1.76513     14.76042     12.98451        -0.053591     -6.514338      0.300405
     16.39667     14.95520     11.63069         1.826453     -3.855621     -0.192053
     17.08737      0.86439     14.59889         0.000127      0.007265      0.000316
     21.51258      5.42033     16.98745        -0.010369     -0.004766     -0.003850
     17.20410     15.43682     16.47860        -0.006067     -0.002098      0.004796
     14.63279      9.51590     13.07550         1.928357     -1.191962     -1.194754
     13.02798     11.36987     12.56124        -3.582898     -2.719305      1.667984
      9.98620      4.39144     14.91890        -0.002723      0.008716      0.010404
     22.90092     13.15555     12.81787         0.370072      0.281808      0.257554
     15.33228     10.75249     17.03578        -0.002397     -0.003074      0.003292
      9.30007     13.46778     13.86023        -0.004109      0.003097     -0.001607
     14.10764      9.33961     10.36813         0.262338     -0.096067      0.412000
     16.86163     11.41137     14.98399        -0.015939      0.010261     -0.007733
      3.40183      6.54721     16.58007         0.010319      0.010361      0.003596
      1.53928      9.89317     14.56885        -0.002142      0.008511      0.011771
     19.16683     16.00018     14.42641        -0.003506     -0.003958     -0.008610
     19.38748      6.39889     12.14868        -0.149640      0.321486      0.172626
     12.35858      5.33707     14.28309        -0.003148     -0.005776      0.030143
     17.29437      9.03755     16.03363        -0.001453     -0.008054     -0.002513
     13.04813      3.08354     10.61647        -1.374942     -1.830181      0.564334
     18.86654      4.60538     10.30420        -0.028844     -0.031077      0.734164
      5.55680     17.23295     13.65459        -0.702195      0.275689     -0.937118
     16.23647     14.04176     14.55186         0.002458      0.001260     -0.005919
     21.63026     17.16791     14.86603         0.003715     -0.013777      0.007611
     12.30607      5.71746     10.71453        -7.941670      6.696782      3.209993
     10.98958     17.85196     14.70480         0.002560      0.002205      0.007144
     19.61138      1.68629     14.51584        -0.009330     -0.004709      0.003528
     12.59089      2.06850     13.07169        -2.031589      0.636698     -0.971445
      8.19636      3.34045     11.81891        -0.069928      0.188579      0.021724
      0.27320     17.39900      9.01248        -0.250109      0.141491      0.323928
     10.80266     10.60433     18.24515        -0.013649      0.016420      0.001994
     15.33146     16.72822     10.19493        -0.585456      0.163802      0.624104
      1.78401     12.39051     11.71795         0.004905     -0.179112      0.084294
     10.61708      7.25114     14.88518        -0.004717     -0.004101     -0.005202
     16.83574     12.65136     10.20447        -0.065364      0.319100      0.532936
     10.48988     12.64786     16.18599         0.000899     -0.008967     -0.005763
     17.61608     12.81271     12.80443        -0.342632      0.284275     -1.019948
     18.22167      2.16992     16.68872         0.002353     -0.005803      0.036444
     23.25173      5.54046     12.05458         0.223498      0.021771     -0.078043
     12.46921      9.17744     14.24951        -0.019661     -0.008000      0.007939
     19.11970      9.00249     11.38355         0.353248     -0.344914      0.421754
      5.52757      2.57670     16.25621        -0.002256      0.032114     -0.002678
      4.76286     15.01221     12.64953         0.603273     -6.745373      0.310180
      5.62000     10.08860     14.04240        -0.003980      0.004986     -0.005756
      1.42981     11.27406     16.76771        -0.005668      0.004170      0.010954
      1.07653     10.87414      9.52151         0.243749      0.184080      0.407349
     18.74463     17.71402     16.28245        -0.004578     -0.001661     -0.010676
     12.59294      0.46078     10.87440        -0.259426      0.390443      0.241715
     14.17368      5.61649     16.26420         0.006358      0.010315      0.010381
     20.16779      0.03282      9.92551        -0.010280      0.031598      0.344654
      2.21988      2.65935     12.55675        -0.018234     -0.122029     -0.817642
      4.01539      3.66536     14.26539         0.007883     -0.003528      0.013255
     15.00425     12.72417     12.22697         2.610322      0.234209     -0.569199
     10.22365      7.38438     10.38809         0.227204     -0.758037      0.533632
     13.45224      1.00446     15.35638        -0.003206     -0.005848      0.006031
      3.54323     10.71216     10.45651         0.037535      0.717526      0.117855
      6.26602     10.87397     10.54651         0.168090      0.300156      0.027238
     10.30490      5.79750     12.64390         0.324226      0.077450     -0.606512
      5.56999      2.83129     11.55719         0.342783      0.302406     -0.309921
      1.71026      2.67926     15.12079         0.011658     -0.000498     -0.012414
     19.80095      9.91549     16.06821         0.002946      0.001894      0.000598
     14.54050      5.03173     11.04652         1.397726      0.667827      0.855675
     14.10710     16.11444     12.56054        23.500002     14.656632     -4.495115
      0.73265      3.49776     10.45741         0.405513      0.139948      0.274647
     14.23287      3.49001     14.72276        -0.010930      0.015653     -0.002462
      3.10689     16.96302     12.89023         0.028854     -0.229204     -0.376534
      1.87512      5.03871     13.75716        -0.004656      0.005562     -0.007717
      8.73776      1.80806     15.29554        -0.008629     -0.008127     -0.009255
      1.55462     12.57945     14.39762         0.000551     -0.013484     -0.019642
     15.60124      7.48616     11.56016        -0.353342      0.092926      0.450579
     18.72476     13.19404     15.17817        -0.011580      0.000224      0.004132
     16.47565     17.30467     12.64014        -0.753254      0.356987     -0.204055
     14.00057     11.43819     14.87558        -0.018460     -0.012955      0.005457
     16.92051      5.28080     12.14236         0.206317      0.094275     -0.013405
     22.88663      5.65257     14.71519        -0.008752      0.006027      0.003596
      3.69964     11.36323     15.33333         0.011999      0.004041     -0.007559
     14.82505      5.88058     13.65139         0.389118      0.274709     -0.693599
     19.29315      7.23311     16.32107         0.004029      0.006646     -0.016939
     22.43944      0.45255     11.20910        -0.282677     -0.401714     -0.288721
      6.60847      3.50489     13.94292         0.002910      0.002643     -0.000615
      5.83332      7.98717     12.39473         0.022414     -0.803531     -0.649048
      6.36653     15.33365     15.24501         0.001258      0.004184     -0.009495
      4.76602     12.38230     13.08921         0.277674      0.626151     -0.386801
      3.44223      8.58585     13.24127        -0.288149      0.124222      0.196938
      5.27126      7.63466     14.97132        -0.007030      0.008702     -0.001052
     21.33533      8.16316     12.73516        -0.280387     -0.134555     -0.108151
     20.36075     12.72637     12.47801         0.355853      0.271800      0.413511
     17.27823      1.64115     11.96927        -0.175717     -0.265390      0.455525
      5.19948     16.80766     10.96698        -0.330255      0.393342      0.392813
      5.83549      7.25934     17.46608         0.001806     -0.003982      0.024807
     14.75128     15.97119     15.93661        -0.002112     -0.005150     -0.002382
      9.60174     14.25766     11.38342        -0.525550     -0.382633      0.321733
     21.48410      3.51133     13.66334        -0.751400     -0.042034     -0.131864
      3.10098      7.99629      8.93261         0.106023     -0.363898      0.305506
      3.63009      5.45909      8.34891        -0.155317      0.570738      0.327644
      8.73041      2.33107      9.35416         0.190386      0.570562      0.349436
      0.81870      5.23411     17.02858        -0.020302     -0.009746      0.001249
     13.40528      4.61364      8.60536        -0.219548      0.162160      0.228241
      5.72670     13.94736     17.45977        -0.011945     -0.007879      0.012244
      4.85278     11.70877      8.34377         0.090528     -0.113165      0.523742
      6.44475      7.06586      9.87630         0.014044      0.030182      0.731119
      8.55122     10.78788      9.20005        -0.040274     -0.021704      0.719297
      5.29775      0.97694      9.62744        -0.075302      0.777532      0.121086
      5.64476      3.51205      8.85385        -0.380213     -0.055634      0.452226
     11.73333     16.12848     12.22768        -2.237860      1.021953     -0.685025
     12.87802     14.94351     14.35931         0.011415      0.003679     -0.009070
     12.76877     11.69377     17.04851         0.003652      0.007192      0.005438
     11.20901      2.13136     16.03644        -0.004816      0.004410      0.002406
      6.14021     12.52671     15.29683        -0.007431     -0.012064     -0.002181
     10.39893     15.25367     15.66795         0.008880     -0.003389     -0.000590
     17.94453     11.19005     17.46707         0.000140      0.002297      0.000416
     19.78392     15.06470     16.74826        -0.001932     -0.008989      0.005020
     14.98322     13.37545     16.67838        -0.008178     -0.008646     -0.000354
      0.19570      0.56197     16.21409         0.009669      0.005323     -0.002976
      6.68259     18.08582     15.95329         0.003294     -0.006568     -0.004587
     11.80944     17.53738     16.92269        -0.005572      0.014786     -0.005720
     10.41228      7.70173     19.16714         0.022369      0.020465      0.004940
     12.99253      8.78646     19.56516        -0.015941     -0.004206     -0.008820
      1.94629     10.94796     10.92575        -0.076307     -0.122486      0.053664
      9.57538     13.79577     15.46558        -0.012457      0.007290     -0.003542
     19.70466      7.95855     12.57709         0.119648     -0.150091     -0.243392
      0.39797     17.90763     10.58160         0.083579     -0.154854      0.311646
      0.34203      5.10875     10.51358         0.030268      0.026109      0.064548
      0.22513      2.03787     15.38926         0.001652     -0.004248      0.004963
     14.28324     11.88599     16.42247         0.007953     -0.007161     -0.010456
      5.00844      8.58733     13.70044         0.003326     -0.002729      0.000944
     21.42067     13.65057     13.34099         0.216889      0.284561     -0.599434
     12.18530      1.96046     11.45195         0.185494     -0.086024      0.476856
      9.81038      2.99153     15.83692        -0.007988     -0.009126     -0.007307
      1.95161      2.48084     10.94102         0.064342     -0.124290      0.063665
     16.43022      0.77154     13.10088         0.077215     -0.027549     -0.293565
     15.56778     16.23242     11.76084        -0.455468      4.542380     -0.212990
     15.21753      9.09246     11.56390         0.121023      0.036836      0.182261
      4.64410     16.49418     12.47363        -0.746891      6.158404     -0.370202
      5.00021      6.60286     16.21040        -0.005576      0.002960      0.004442
     15.77335     14.71793     15.97639        -0.003465      0.005044     -0.001877
      5.06752     11.58212     14.47602        -0.003218      0.010697      0.004582
      8.63171     13.28029     12.34509        -0.272538     -0.058476      0.103360
     18.66634     16.08075     16.01267         0.000350     -0.000034      0.002736
     20.59676     16.49148     13.76413         0.001067     -0.000872      0.003006
     13.49639     10.37566     13.75884        -0.001185     -0.004268     -0.010072
     13.80696      2.04290     14.12231         0.000994     -0.000608      0.002438
     20.08764      2.71535     13.31200        -0.154145      0.066481     -0.444875
     19.58161     10.94358     17.34971        -0.001117     -0.003037      0.005990
      3.12887      6.48829      9.59393        -0.117260     -0.103486      0.046170
     18.50814      5.03172     11.87902        -0.266163      0.072650      0.100102
      9.34311      3.17530     10.64590        -0.154392     -0.321708      0.214340
     20.05006     13.58318     16.04585        -0.001313      0.001483      0.001088
      6.63284     16.87554     14.75992        -0.007989      0.001670      0.004733
      0.53809      5.94699     13.50205         0.279332      0.202795     -0.383267
     13.44906     12.56201     11.70944         3.936682     -0.789415     -2.530332
      5.38812     13.59692     12.15046         0.078785     -0.593995      0.010707
     13.90699      5.09193     14.73655        -0.004594      0.004007     -0.004024
     22.83697      4.88626     16.20270         0.003601     -0.000183      0.000972
     20.80833      0.41931     11.40393         0.033642      0.032077      0.107345
      2.45227      3.50252     13.91674        -0.005755     -0.003762      0.001579
      1.12503     13.24241     12.97472        -0.160084     -0.575059     -0.250256
      5.43151      3.69058     15.07922        -0.000069     -0.007991      0.009582
     13.14116      4.63026     10.24864         8.362230     -5.373239     -3.586448
     11.18051     11.28919     16.76973         0.002747      0.014007     -0.002507
      6.57509     13.91817     16.05991        -0.002806      0.005527      0.011104
      4.87915     11.61807      9.99509         0.064817     -0.072544      0.009179
     17.34822     12.85131     14.40916         0.004580     -0.003206     -0.002583
     23.10117     17.90366     14.80037         0.000577      0.002641     -0.001041
     16.45847     13.31093     11.67438        -0.674201     -1.338901      0.389464
     18.43928      1.05424     15.50796         0.000627     -0.012923     -0.001309
     10.68078      5.91082     11.00304        -1.125182      0.497756      0.394505
     10.55542     16.87103     16.00617        -0.003826      0.001040     -0.000386
     11.92360      0.66505     15.77089         0.001244      0.004341      0.000760
      5.71602      6.67109     11.31648         0.010040     -0.128238     -0.119263
     15.41481      5.93892     12.10687        -0.113249     -0.497780     -0.829375
     10.78606      5.68635     14.21199        -0.005306      0.002448      0.000115
      7.89450     10.64936     10.72869        -0.148260     -0.068515     -0.061440
     18.84678      8.64591     15.58612         0.001993      0.003737      0.006849
      1.61817     16.24731     12.91761        -0.320238      6.421072     -0.517625
      4.95891      2.57656     10.04353        -0.087573     -0.036293      0.057565
      1.82941      8.91049     13.29887        -0.021655     -0.196359     -0.343783
     13.05132     15.40433     12.76235       -22.305752    -15.872666      4.681330
     16.84130     10.58274     16.40556         0.010253     -0.000278     -0.006865
      6.70854      3.76617     12.34244        -0.207127      0.025200     -0.818483
      2.05570     11.28602     15.25876         0.004511     -0.011297      0.006603
      8.29959      0.25441     15.54783        -0.008208     -0.004677      0.005032
     11.41406      8.63232     15.36827        -0.001531     -0.002802     -0.010451
     11.57296      8.84641     18.57429        -0.019368      0.004958     -0.007677
 -----------------------------------------------------------------------------------
    total drift:                                0.050648      0.304288      0.293536


--------------------------------------------------------------------------------------------------------



  FREE ENERGIE OF THE ION-ELECTRON SYSTEM (eV)
  ---------------------------------------------------
  free  energy   TOTEN  =     -1861.90355732 eV

  energy  without entropy=    -1861.90355732  energy(sigma->0) =    -1861.90355732

 d Force = 0.6361092E-05[-0.168E-04, 0.295E-04]  d Energy =-0.1279567E-04 0.192E-04
 d Force = 0.9194467E-01[ 0.919E-01, 0.920E-01]  d Ewald  = 0.9194435E-01 0.316E-06


--------------------------------------------------------------------------------------------------------


    POTLOK:  cpu time    0.8278: real time    0.8301


--------------------------------------------------------------------------------------------------------


 stress matrix after NEB project (eV)
    -32.45734      0.16919      0.44923
      0.16919    -33.20072     -0.34312
      0.44923     -0.34312    -25.26316
  FORCES: max atom, RMS     0.036978    0.009780
  FORCE total and by dimension    0.161007    0.036444
  Stress total and by dimension   52.864831   33.200722


--------------------------------------------------------------------------------------------------------


  
 reached required accuracy - stopping structural energy minimisation
     LOOP+:  cpu time  127.3360: real time  127.8196
    4ORBIT:  cpu time    0.0000: real time    0.0000

 total amount of memory used by VASP MPI-rank0   697018. kBytes
=======================================================================

   base      :      30000. kBytes
   nonlr-proj:      16660. kBytes
   fftplans  :      30982. kBytes
   grid      :      57864. kBytes
   one-center:       1057. kBytes
   wavefun   :     560455. kBytes

  
  
 General timing and accounting informations for this job:
 ========================================================
  
                  Total CPU time used (sec):     1859.909
                            User time (sec):     1855.982
                          System time (sec):        3.926
                         Elapsed time (sec):     1868.523
  
                   Maximum memory used (kb):      983556.
                   Average memory used (kb):           0.
  
                          Minor page faults:      4582738
                          Major page faults:          225
                 Voluntary context switches:         5796
