 running on   64 total cores
 distrk:  each k-point on   64 cores,    1 groups
 distr:  one band on    4 cores,   16 groups
 using from now: INCAR     
 vasp.5.4.4.18Apr17-6-g9f103f2a35 (build Oct 20 2021 08:33:53) complex           
 POSCAR found type information on POSCAR  C  H  O  Si W 
 POSCAR found :  5 types and     276 ions
 scaLAPACK will be used

 ----------------------------------------------------------------------------- 
|                                                                             |
|  ADVICE TO THIS USER RUNNING 'VASP/VAMP'   (HEAR YOUR MASTER'S VOICE ...):  |
|                                                                             |
|      You enforced a specific xc-type in the INCAR file,                     |
|      a different type was found on the POTCAR file                          |
|          I HOPE YOU KNOW, WHAT YOU ARE  DOING                               |
|                                                                             |
 ----------------------------------------------------------------------------- 

 LDA part: xc-table for Pade appr. of Perdew
 POSCAR found type information on POSCAR  C  H  O  Si W 
 POSCAR found :  5 types and     276 ions
 POSCAR, INCAR and KPOINTS ok, starting setup
 FFT: planning ...
 WAVECAR not read
 WARNING: random wavefunctions but no delay for mixing, default for NELMDL
 entering main loop
       N       E                     dE             d eps       ncg     rms          rms(c)
DAV:   1     0.129089889516E+05    0.12909E+05   -0.49377E+05  1712   0.123E+03
DAV:   2     0.628438007297E+03   -0.12281E+05   -0.11890E+05  2160   0.312E+02
DAV:   3    -0.201539533237E+04   -0.26438E+04   -0.26345E+04  1776   0.154E+02
DAV:   4    -0.211049814917E+04   -0.95103E+02   -0.94722E+02  1776   0.339E+01
DAV:   5    -0.211318348173E+04   -0.26853E+01   -0.26816E+01  1904   0.502E+00    0.128E+02
RMM:   6    -0.186746623546E+04    0.24572E+03   -0.11172E+03  1536   0.331E+01    0.533E+01
RMM:   7    -0.186449683945E+04    0.29694E+01   -0.65467E+01  1536   0.677E+00    0.312E+01
RMM:   8    -0.186443001540E+04    0.66824E-01   -0.20045E+01  1536   0.347E+00    0.159E+01
RMM:   9    -0.186091479653E+04    0.35152E+01   -0.59258E+00  1536   0.264E+00    0.354E+00
RMM:  10    -0.186063074499E+04    0.28405E+00   -0.59019E-01  1537   0.633E-01    0.210E+00
RMM:  11    -0.186047813545E+04    0.15261E+00   -0.45374E-01  1537   0.622E-01    0.131E+00
RMM:  12    -0.186035463341E+04    0.12350E+00   -0.15292E-01  1536   0.409E-01    0.784E-01
RMM:  13    -0.186032730843E+04    0.27325E-01   -0.34523E-02  1598   0.141E-01    0.313E-01
RMM:  14    -0.186030526820E+04    0.22040E-01   -0.23202E-02  1536   0.143E-01    0.227E-01
RMM:  15    -0.186030646243E+04   -0.11942E-02   -0.14076E-02  1537   0.954E-02    0.108E-01
RMM:  16    -0.186031526950E+04   -0.88071E-02   -0.73744E-03  1538   0.636E-02    0.101E-01
RMM:  17    -0.186032262069E+04   -0.73512E-02   -0.41292E-03  1538   0.460E-02    0.379E-02
RMM:  18    -0.186032729162E+04   -0.46709E-02   -0.65108E-04  1556   0.194E-02    0.199E-02
RMM:  19    -0.186033231510E+04   -0.50235E-02   -0.55879E-04  1536   0.176E-02    0.148E-02
RMM:  20    -0.186033368440E+04   -0.13693E-02   -0.15243E-04  1541   0.791E-03    0.779E-03
RMM:  21    -0.186033455260E+04   -0.86820E-03   -0.81684E-05  1537   0.594E-03    0.678E-03
RMM:  22    -0.186033479969E+04   -0.24708E-03   -0.18693E-05  1548   0.277E-03    0.285E-03
RMM:  23    -0.186033496608E+04   -0.16639E-03   -0.70194E-06  1386   0.176E-03    0.138E-03
RMM:  24    -0.186033502722E+04   -0.61144E-04   -0.20249E-06  1336   0.885E-04    0.127E-03
RMM:  25    -0.186033508968E+04   -0.62456E-04   -0.25711E-06  1343   0.969E-04    0.984E-04
RMM:  26    -0.186033510186E+04   -0.12178E-04   -0.48781E-07  1109   0.435E-04    0.386E-04
RMM:  27    -0.186033511051E+04   -0.86493E-05   -0.27395E-07   993   0.330E-04    0.239E-04
RMM:  28    -0.186033511340E+04   -0.28921E-05   -0.75257E-08   826   0.191E-04    0.152E-04
RMM:  29    -0.186033511516E+04   -0.17617E-05   -0.41128E-08   821   0.158E-04    0.910E-05
RMM:  30    -0.186033511600E+04   -0.84135E-06   -0.18120E-08   658   0.119E-04    0.487E-05
RMM:  31    -0.186033511636E+04   -0.35368E-06   -0.89253E-09   593   0.968E-05    0.313E-05
RMM:  32    -0.186033511654E+04   -0.18771E-06   -0.32991E-09   453   0.828E-05    0.219E-05
RMM:  33    -0.186033511660E+04   -0.60783E-07   -0.14988E-09   355   0.765E-05
   1 F= -.18843940E+04 E0= -.18843939E+04  d E =-.188439E+04
quench:  g(F)=  0.000E+00 g(S)=  0.000E+00 dE (1.order)= 0.000E+00
 bond charge predicted
       N       E                     dE             d eps       ncg     rms          rms(c)
DAV:   1    -0.186033585962E+04   -0.74307E-03   -0.35665E-02  1568   0.145E-01    0.589E-02
RMM:   2    -0.186033590819E+04   -0.48577E-04   -0.81637E-04  1533   0.187E-02    0.531E-02
RMM:   3    -0.186033587304E+04    0.35153E-04   -0.11964E-04  1474   0.516E-03    0.330E-02
RMM:   4    -0.186033586214E+04    0.10902E-04   -0.15688E-05  1385   0.229E-03    0.166E-02
RMM:   5    -0.186033586036E+04    0.17737E-05   -0.87723E-06  1353   0.167E-03    0.512E-03
RMM:   6    -0.186033586027E+04    0.96014E-07   -0.88151E-07  1037   0.536E-04
   2 F= -.18843941E+04 E0= -.18843941E+04  d E =-.160018E-03
quench:  g(F)=  0.000E+00 g(S)=  0.000E+00 dE (1.order)= 0.000E+00
 bond charge predicted
       N       E                     dE             d eps       ncg     rms          rms(c)
DAV:   1    -0.186033601963E+04   -0.15926E-03   -0.72757E-02  1536   0.341E-01    0.779E-02
RMM:   2    -0.186033615185E+04   -0.13222E-03   -0.15968E-03  1536   0.454E-02    0.350E-02
RMM:   3    -0.186033613716E+04    0.14687E-04   -0.53129E-05  1528   0.717E-03    0.247E-02
RMM:   4    -0.186033613352E+04    0.36365E-05   -0.20747E-05  1503   0.337E-03    0.228E-02
RMM:   5    -0.186033612777E+04    0.57562E-05   -0.20067E-05  1517   0.384E-03    0.423E-03
RMM:   6    -0.186033612770E+04    0.65207E-07   -0.72196E-07  1216   0.776E-04
   3 F= -.18843934E+04 E0= -.18843934E+04  d E =0.701900E-03
quench:  g(F)=  0.000E+00 g(S)=  0.000E+00 dE (1.order)= 0.000E+00
 bond charge predicted
       N       E                     dE             d eps       ncg     rms          rms(c)
DAV:   1    -0.186033591891E+04    0.20886E-03   -0.47695E-02  1584   0.275E-01    0.628E-02
RMM:   2    -0.186033600361E+04   -0.84699E-04   -0.10268E-03  1536   0.365E-02    0.291E-02
RMM:   3    -0.186033599502E+04    0.85899E-05   -0.38076E-05  1525   0.585E-03    0.217E-02
RMM:   4    -0.186033599016E+04    0.48583E-05   -0.13294E-05  1491   0.265E-03    0.170E-02
RMM:   5    -0.186033598725E+04    0.29103E-05   -0.12999E-05  1509   0.312E-03    0.331E-03
RMM:   6    -0.186033598722E+04    0.26717E-07   -0.45742E-07  1100   0.612E-04
   4 F= -.18843941E+04 E0= -.18843940E+04  d E =-.624264E-03
quench:  g(F)=  0.000E+00 g(S)=  0.000E+00 dE (1.order)= 0.000E+00
 bond charge predicted
       N       E                     dE             d eps       ncg     rms          rms(c)
DAV:   1    -0.186033323143E+04    0.27558E-02   -0.40829E-02  1568   0.214E-01    0.880E-02
RMM:   2    -0.186033329322E+04   -0.61788E-04   -0.10016E-03  1536   0.340E-02    0.628E-02
RMM:   3    -0.186033327875E+04    0.14471E-04   -0.63880E-05  1520   0.688E-03    0.463E-02
RMM:   4    -0.186033328101E+04   -0.22554E-05   -0.52080E-05  1506   0.487E-03    0.323E-02
RMM:   5    -0.186033326459E+04    0.16417E-04   -0.18844E-05  1482   0.282E-03    0.850E-03
RMM:   6    -0.186033326421E+04    0.37685E-06   -0.21361E-06  1288   0.118E-03    0.308E-03
RMM:   7    -0.186033326438E+04   -0.16991E-06   -0.51688E-07  1158   0.642E-04    0.163E-03
RMM:   8    -0.186033326475E+04   -0.36848E-06   -0.18587E-07   933   0.396E-04    0.498E-04
RMM:   9    -0.186033326501E+04   -0.26151E-06   -0.48029E-08   807   0.186E-04    0.310E-04
RMM:  10    -0.186033326552E+04   -0.51103E-06   -0.96322E-08   894   0.238E-04    0.158E-04
RMM:  11    -0.186033326569E+04   -0.16371E-06   -0.27421E-08   680   0.132E-04    0.109E-04
RMM:  12    -0.186033326595E+04   -0.25996E-06   -0.25127E-08   711   0.127E-04    0.665E-05
RMM:  13    -0.186033326608E+04   -0.12999E-06   -0.94282E-09   565   0.941E-05    0.298E-05
RMM:  14    -0.186033326617E+04   -0.87850E-07   -0.41183E-09   430   0.816E-05
   5 F= -.18843939E+04 E0= -.18843939E+04  d E =0.128251E-03
quench:  g(F)=  0.000E+00 g(S)=  0.000E+00 dE (1.order)= 0.000E+00
 bond charge predicted
       N       E                     dE             d eps       ncg     rms          rms(c)
DAV:   1    -0.186033581032E+04   -0.25442E-02   -0.35522E-02  1616   0.200E-01    0.812E-02
RMM:   2    -0.186033586350E+04   -0.53174E-04   -0.87053E-04  1536   0.316E-02    0.582E-02
RMM:   3    -0.186033585066E+04    0.12833E-04   -0.56297E-05  1516   0.636E-03    0.434E-02
RMM:   4    -0.186033585209E+04   -0.14221E-05   -0.43672E-05  1506   0.447E-03    0.299E-02
RMM:   5    -0.186033583790E+04    0.14184E-04   -0.16169E-05  1480   0.266E-03    0.815E-03
RMM:   6    -0.186033583747E+04    0.42570E-06   -0.18097E-06  1254   0.110E-03    0.283E-03
RMM:   7    -0.186033583754E+04   -0.69660E-07   -0.44438E-07  1093   0.595E-04
   6 F= -.18843942E+04 E0= -.18843941E+04  d E =-.227806E-03
quench:  g(F)=  0.000E+00 g(S)=  0.000E+00 dE (1.order)= 0.000E+00
 bond charge predicted
       N       E                     dE             d eps       ncg     rms          rms(c)
DAV:   1    -0.186033437137E+04    0.14661E-02   -0.58165E-02  1648   0.292E-01    0.974E-02
RMM:   2    -0.186033447611E+04   -0.10474E-03   -0.15495E-03  1536   0.428E-02    0.366E-02
RMM:   3    -0.186033445369E+04    0.22423E-04   -0.71742E-05  1524   0.757E-03    0.307E-02
RMM:   4    -0.186033444237E+04    0.11324E-04   -0.23826E-05  1504   0.345E-03    0.183E-02
RMM:   5    -0.186033443772E+04    0.46448E-05   -0.21795E-05  1513   0.370E-03    0.410E-03
RMM:   6    -0.186033443759E+04    0.13373E-06   -0.14873E-06  1359   0.958E-04    0.232E-03
RMM:   7    -0.186033443788E+04   -0.29002E-06   -0.58782E-07  1269   0.660E-04    0.110E-03
RMM:   8    -0.186033443827E+04   -0.39194E-06   -0.18445E-07   928   0.376E-04    0.548E-04
RMM:   9    -0.186033443877E+04   -0.49992E-06   -0.10644E-07   880   0.243E-04    0.355E-04
RMM:  10    -0.186033443955E+04   -0.78135E-06   -0.16279E-07   934   0.286E-04    0.161E-04
RMM:  11    -0.186033443989E+04   -0.34054E-06   -0.52914E-08   759   0.169E-04    0.118E-04
RMM:  12    -0.186033444027E+04   -0.38143E-06   -0.34896E-08   748   0.144E-04    0.626E-05
RMM:  13    -0.186033444048E+04   -0.20338E-06   -0.16259E-08   643   0.107E-04    0.389E-05
RMM:  14    -0.186033444063E+04   -0.15851E-06   -0.79908E-09   536   0.880E-05    0.304E-05
RMM:  15    -0.186033444072E+04   -0.88694E-07   -0.41772E-09   415   0.789E-05
   7 F= -.18843939E+04 E0= -.18843938E+04  d E =0.290318E-03
quench:  g(F)=  0.000E+00 g(S)=  0.000E+00 dE (1.order)= 0.000E+00
 bond charge predicted
       N       E                     dE             d eps       ncg     rms          rms(c)
DAV:   1    -0.186033576154E+04   -0.13209E-02   -0.56571E-02  1648   0.287E-01    0.962E-02
RMM:   2    -0.186033586401E+04   -0.10247E-03   -0.15062E-03  1536   0.422E-02    0.360E-02
RMM:   3    -0.186033584236E+04    0.21652E-04   -0.70029E-05  1524   0.747E-03    0.302E-02
RMM:   4    -0.186033583160E+04    0.10763E-04   -0.23066E-05  1504   0.339E-03    0.180E-02
RMM:   5    -0.186033582697E+04    0.46291E-05   -0.21420E-05  1513   0.366E-03    0.404E-03
RMM:   6    -0.186033582666E+04    0.30997E-06   -0.14752E-06  1354   0.949E-04    0.230E-03
RMM:   7    -0.186033582664E+04    0.14435E-07   -0.59966E-07  1277   0.663E-04
   8 F= -.18843942E+04 E0= -.18843941E+04  d E =-.296071E-03
quench:  g(F)=  0.000E+00 g(S)=  0.000E+00 dE (1.order)= 0.000E+00
 bond charge predicted
       N       E                     dE             d eps       ncg     rms          rms(c)
DAV:   1    -0.186033647118E+04   -0.64453E-03   -0.58533E-02  1600   0.288E-01    0.904E-02
RMM:   2    -0.186033657754E+04   -0.10636E-03   -0.14966E-03  1536   0.427E-02    0.529E-02
RMM:   3    -0.186033655730E+04    0.20240E-04   -0.66078E-05  1524   0.753E-03    0.342E-02
RMM:   4    -0.186033655743E+04   -0.12213E-06   -0.41429E-05  1509   0.455E-03    0.353E-02
RMM:   5    -0.186033654173E+04    0.15692E-04   -0.23828E-05  1510   0.376E-03    0.687E-03
RMM:   6    -0.186033654146E+04    0.27395E-06   -0.19529E-06  1297   0.112E-03    0.362E-03
RMM:   7    -0.186033654152E+04   -0.64028E-07   -0.93137E-07  1346   0.852E-04
   9 F= -.18843923E+04 E0= -.18843922E+04  d E =0.191414E-02
quench:  g(F)=  0.000E+00 g(S)=  0.000E+00 dE (1.order)= 0.000E+00
 bond charge predicted
       N       E                     dE             d eps       ncg     rms          rms(c)
DAV:   1    -0.186033181002E+04    0.47314E-02   -0.19661E-01  1600   0.467E-01    0.175E-01
RMM:   2    -0.186033210555E+04   -0.29553E-03   -0.46911E-03  1536   0.724E-02    0.142E-01
RMM:   3    -0.186033203659E+04    0.68961E-04   -0.25017E-04  1536   0.134E-02    0.112E-01
RMM:   4    -0.186033206190E+04   -0.25313E-04   -0.21976E-04  1528   0.983E-03    0.768E-02
RMM:   5    -0.186033197861E+04    0.83293E-04   -0.11657E-04  1522   0.703E-03    0.212E-02
RMM:   6    -0.186033197350E+04    0.51109E-05   -0.11213E-05  1440   0.263E-03    0.654E-03
RMM:   7    -0.186033197340E+04    0.99753E-07   -0.26190E-06  1429   0.141E-03    0.374E-03
RMM:   8    -0.186033197444E+04   -0.10435E-05   -0.76969E-07  1240   0.766E-04    0.109E-03
RMM:   9    -0.186033197569E+04   -0.12519E-05   -0.16804E-07   929   0.311E-04    0.657E-04
RMM:  10    -0.186033197783E+04   -0.21383E-05   -0.31027E-07  1034   0.378E-04    0.337E-04
RMM:  11    -0.186033197915E+04   -0.13123E-05   -0.13325E-07   866   0.245E-04    0.291E-04
RMM:  12    -0.186033198039E+04   -0.12402E-05   -0.10101E-07   822   0.198E-04    0.109E-04
RMM:  13    -0.186033198105E+04   -0.66088E-06   -0.48170E-08   707   0.143E-04    0.708E-05
RMM:  14    -0.186033198138E+04   -0.33142E-06   -0.17739E-08   581   0.102E-04    0.442E-05
RMM:  15    -0.186033198170E+04   -0.32358E-06   -0.15730E-08   614   0.100E-04    0.267E-05
RMM:  16    -0.186033198178E+04   -0.76529E-07   -0.34000E-09   377   0.759E-05
  10 F= -.18843935E+04 E0= -.18843934E+04  d E =-.128009E-02
quench:  g(F)=  0.000E+00 g(S)=  0.000E+00 dE (1.order)= 0.000E+00
 bond charge predicted
       N       E                     dE             d eps       ncg     rms          rms(c)
DAV:   1    -0.186033384213E+04   -0.18604E-02   -0.20524E-02  1680   0.145E-01    0.622E-02
RMM:   2    -0.186033387318E+04   -0.31053E-04   -0.50137E-04  1536   0.238E-02    0.524E-02
RMM:   3    -0.186033386360E+04    0.95824E-05   -0.26107E-05  1517   0.460E-03    0.322E-02
RMM:   4    -0.186033386840E+04   -0.48035E-05   -0.29438E-05  1519   0.416E-03    0.277E-02
RMM:   5    -0.186033385699E+04    0.11413E-04   -0.92411E-06  1340   0.170E-03    0.591E-03
RMM:   6    -0.186033385687E+04    0.12468E-06   -0.10743E-06  1211   0.856E-04    0.279E-03
RMM:   7    -0.186033385700E+04   -0.12925E-06   -0.40220E-07  1055   0.566E-04    0.123E-03
RMM:   8    -0.186033385727E+04   -0.27286E-06   -0.90001E-08   887   0.282E-04    0.361E-04
RMM:   9    -0.186033385754E+04   -0.27455E-06   -0.31756E-08   760   0.154E-04    0.240E-04
RMM:  10    -0.186033385804E+04   -0.49420E-06   -0.57613E-08   854   0.181E-04    0.150E-04
RMM:  11    -0.186033385827E+04   -0.23621E-06   -0.20815E-08   614   0.112E-04    0.796E-05
RMM:  12    -0.186033385853E+04   -0.25993E-06   -0.19673E-08   632   0.108E-04    0.542E-05
RMM:  13    -0.186033385870E+04   -0.16826E-06   -0.98092E-09   501   0.889E-05    0.248E-05
RMM:  14    -0.186033385880E+04   -0.95519E-07   -0.55117E-09   428   0.805E-05
  11 F= -.18843944E+04 E0= -.18843943E+04  d E =-.857227E-03
quench:  g(F)=  0.000E+00 g(S)=  0.000E+00 dE (1.order)= 0.000E+00
 bond charge predicted
       N       E                     dE             d eps       ncg     rms          rms(c)
DAV:   1    -0.186033459923E+04   -0.74053E-03   -0.35649E-02  1568   0.139E-01    0.591E-02
RMM:   2    -0.186033464310E+04   -0.43868E-04   -0.78338E-04  1534   0.177E-02    0.530E-02
RMM:   3    -0.186033460751E+04    0.35590E-04   -0.11231E-04  1464   0.505E-03    0.344E-02
RMM:   4    -0.186033459654E+04    0.10967E-04   -0.14020E-05  1346   0.218E-03    0.182E-02
RMM:   5    -0.186033459455E+04    0.19902E-05   -0.96111E-06  1336   0.170E-03    0.538E-03
RMM:   6    -0.186033459445E+04    0.10083E-06   -0.92247E-07  1030   0.542E-04    0.183E-03
RMM:   7    -0.186033459452E+04   -0.74782E-07   -0.18724E-07   863   0.293E-04
  12 F= -.18843945E+04 E0= -.18843945E+04  d E =-.146690E-03
quench:  g(F)=  0.000E+00 g(S)=  0.000E+00 dE (1.order)= 0.000E+00
 bond charge predicted
       N       E                     dE             d eps       ncg     rms          rms(c)
DAV:   1    -0.186033546005E+04   -0.86560E-03   -0.58785E-02  1632   0.295E-01    0.881E-02
RMM:   2    -0.186033556132E+04   -0.10127E-03   -0.13726E-03  1536   0.420E-02    0.513E-02
RMM:   3    -0.186033554294E+04    0.18377E-04   -0.59271E-05  1531   0.727E-03    0.319E-02
RMM:   4    -0.186033554820E+04   -0.52560E-05   -0.40828E-05  1515   0.469E-03    0.364E-02
RMM:   5    -0.186033553077E+04    0.17426E-04   -0.19838E-05  1514   0.334E-03    0.677E-03
RMM:   6    -0.186033553068E+04    0.90949E-07   -0.17400E-06  1261   0.107E-03    0.331E-03
RMM:   7    -0.186033553069E+04   -0.12617E-07   -0.85725E-07  1333   0.822E-04
  13 F= -.18843941E+04 E0= -.18843941E+04  d E =0.399963E-03
quench:  g(F)=  0.000E+00 g(S)=  0.000E+00 dE (1.order)= 0.000E+00
 bond charge predicted
       N       E                     dE             d eps       ncg     rms          rms(c)
DAV:   1    -0.186033459787E+04    0.93281E-03   -0.53427E-02  1632   0.281E-01    0.842E-02
RMM:   2    -0.186033469257E+04   -0.94706E-04   -0.12473E-03  1536   0.400E-02    0.491E-02
RMM:   3    -0.186033467795E+04    0.14628E-04   -0.55085E-05  1530   0.694E-03    0.305E-02
RMM:   4    -0.186033468333E+04   -0.53815E-05   -0.36643E-05  1514   0.439E-03    0.346E-02
RMM:   5    -0.186033466881E+04    0.14521E-04   -0.18099E-05  1510   0.321E-03    0.644E-03
RMM:   6    -0.186033466875E+04    0.60347E-07   -0.15287E-06  1241   0.101E-03    0.314E-03
RMM:   7    -0.186033466854E+04    0.20939E-06   -0.75445E-07  1303   0.776E-04    0.141E-03
RMM:   8    -0.186033466857E+04   -0.32189E-07   -0.10589E-07   898   0.328E-04
  14 F= -.18843946E+04 E0= -.18843945E+04  d E =-.415137E-03
quench:  g(F)=  0.000E+00 g(S)=  0.000E+00 dE (1.order)= 0.000E+00
 bond charge predicted
       N       E                     dE             d eps       ncg     rms          rms(c)
DAV:   1    -0.186033349337E+04    0.11752E-02   -0.64230E-02  1664   0.308E-01    0.613E-02
RMM:   2    -0.186033360461E+04   -0.11125E-03   -0.13454E-03  1536   0.405E-02    0.296E-02
RMM:   3    -0.186033359314E+04    0.11475E-04   -0.42094E-05  1545   0.630E-03    0.207E-02
RMM:   4    -0.186033358877E+04    0.43701E-05   -0.27269E-05  1523   0.470E-03    0.634E-03
RMM:   5    -0.186033358885E+04   -0.83455E-07   -0.22565E-06  1348   0.112E-03    0.573E-03
RMM:   6    -0.186033358841E+04    0.44728E-06   -0.54100E-07  1054   0.556E-04    0.200E-03
RMM:   7    -0.186033358843E+04   -0.24767E-07   -0.29207E-07  1008   0.496E-04
  15 F= -.18843941E+04 E0= -.18843940E+04  d E =0.446623E-03
quench:  g(F)=  0.000E+00 g(S)=  0.000E+00 dE (1.order)= 0.000E+00
 bond charge predicted
       N       E                     dE             d eps       ncg     rms          rms(c)
DAV:   1    -0.186033453523E+04   -0.94683E-03   -0.54413E-02  1616   0.283E-01    0.565E-02
RMM:   2    -0.186033462883E+04   -0.93600E-04   -0.11409E-03  1536   0.373E-02    0.273E-02
RMM:   3    -0.186033461919E+04    0.96484E-05   -0.36369E-05  1540   0.581E-03    0.196E-02
RMM:   4    -0.186033461694E+04    0.22506E-05   -0.21023E-05  1521   0.402E-03    0.109E-02
RMM:   5    -0.186033461546E+04    0.14769E-05   -0.41366E-06  1404   0.139E-03    0.593E-03
RMM:   6    -0.186033461502E+04    0.44072E-06   -0.54033E-07  1077   0.632E-04    0.175E-03
RMM:   7    -0.186033461501E+04    0.11540E-07   -0.23397E-07   970   0.450E-04
  16 F= -.18843945E+04 E0= -.18843945E+04  d E =-.435655E-03
quench:  g(F)=  0.000E+00 g(S)=  0.000E+00 dE (1.order)= 0.000E+00
 bond charge predicted
       N       E                     dE             d eps       ncg     rms          rms(c)
DAV:   1    -0.186033436672E+04    0.24830E-03   -0.65597E-02  1664   0.287E-01    0.108E-01
RMM:   2    -0.186033448228E+04   -0.11556E-03   -0.15848E-03  1536   0.401E-02    0.349E-02
RMM:   3    -0.186033446201E+04    0.20273E-04   -0.81963E-05  1524   0.764E-03    0.330E-02
RMM:   4    -0.186033444508E+04    0.16925E-04   -0.22273E-05  1489   0.317E-03    0.162E-02
RMM:   5    -0.186033443851E+04    0.65686E-05   -0.25131E-05  1515   0.379E-03    0.388E-03
RMM:   6    -0.186033443785E+04    0.66035E-06   -0.13433E-06  1347   0.877E-04    0.211E-03
RMM:   7    -0.186033443753E+04    0.31899E-06   -0.48532E-07  1172   0.590E-04    0.944E-04
RMM:   8    -0.186033443754E+04   -0.70140E-08   -0.14486E-07   911   0.328E-04
  17 F= -.18843943E+04 E0= -.18843942E+04  d E =0.270137E-03
quench:  g(F)=  0.000E+00 g(S)=  0.000E+00 dE (1.order)= 0.000E+00
 bond charge predicted
       N       E                     dE             d eps       ncg     rms          rms(c)
DAV:   1    -0.186033457706E+04   -0.13953E-03   -0.56535E-02  1648   0.266E-01    0.100E-01
RMM:   2    -0.186033467849E+04   -0.10143E-03   -0.13639E-03  1536   0.373E-02    0.329E-02
RMM:   3    -0.186033466229E+04    0.16196E-04   -0.72734E-05  1524   0.715E-03    0.316E-02
RMM:   4    -0.186033464721E+04    0.15082E-04   -0.19471E-05  1483   0.296E-03    0.149E-02
RMM:   5    -0.186033464227E+04    0.49342E-05   -0.21501E-05  1514   0.353E-03    0.361E-03
RMM:   6    -0.186033464185E+04    0.42588E-06   -0.10903E-06  1308   0.797E-04    0.191E-03
RMM:   7    -0.186033464157E+04    0.27436E-06   -0.38578E-07  1102   0.538E-04    0.817E-04
RMM:   8    -0.186033464151E+04    0.63956E-07   -0.10484E-07   886   0.284E-04
  18 F= -.18843946E+04 E0= -.18843945E+04  d E =-.277739E-03
quench:  g(F)=  0.000E+00 g(S)=  0.000E+00 dE (1.order)= 0.000E+00
 bond charge predicted
       N       E                     dE             d eps       ncg     rms          rms(c)
DAV:   1    -0.186033342692E+04    0.12147E-02   -0.70995E-02  1696   0.298E-01    0.120E-01
RMM:   2    -0.186033354157E+04   -0.11466E-03   -0.17087E-03  1536   0.419E-02    0.416E-02
RMM:   3    -0.186033350916E+04    0.32409E-04   -0.75592E-05  1523   0.772E-03    0.351E-02
RMM:   4    -0.186033350052E+04    0.86413E-05   -0.25577E-05  1489   0.345E-03    0.237E-02
RMM:   5    -0.186033348885E+04    0.11672E-04   -0.36313E-05  1509   0.429E-03    0.670E-03
RMM:   6    -0.186033348738E+04    0.14656E-05   -0.22141E-06  1350   0.120E-03    0.317E-03
RMM:   7    -0.186033348692E+04    0.46812E-06   -0.10977E-06  1315   0.840E-04    0.178E-03
RMM:   8    -0.186033348704E+04   -0.12750E-06   -0.35048E-07  1070   0.461E-04    0.789E-04
RMM:   9    -0.186033348800E+04   -0.96051E-06   -0.22086E-07   949   0.336E-04    0.444E-04
RMM:  10    -0.186033348918E+04   -0.11733E-05   -0.24354E-07   996   0.335E-04    0.240E-04
RMM:  11    -0.186033349001E+04   -0.82862E-06   -0.87521E-08   811   0.214E-04    0.217E-04
RMM:  12    -0.186033349076E+04   -0.75727E-06   -0.57035E-08   781   0.170E-04    0.118E-04
RMM:  13    -0.186033349095E+04   -0.18992E-06   -0.19106E-08   657   0.114E-04    0.553E-05
RMM:  14    -0.186033349133E+04   -0.37372E-06   -0.16573E-08   677   0.107E-04    0.702E-05
RMM:  15    -0.186033349145E+04   -0.12528E-06   -0.48600E-09   427   0.814E-05    0.469E-05
RMM:  16    -0.186033349153E+04   -0.82800E-07   -0.37473E-09   436   0.809E-05
  19 F= -.18843939E+04 E0= -.18843939E+04  d E =0.612956E-03
quench:  g(F)=  0.000E+00 g(S)=  0.000E+00 dE (1.order)= 0.000E+00
 bond charge predicted
       N       E                     dE             d eps       ncg     rms          rms(c)
DAV:   1    -0.186033393173E+04   -0.44028E-03   -0.17116E-01  1616   0.510E-01    0.163E-01
RMM:   2    -0.186033425095E+04   -0.31922E-03   -0.44723E-03  1536   0.744E-02    0.664E-02
RMM:   3    -0.186033420849E+04    0.42463E-04   -0.25736E-04  1540   0.135E-02    0.604E-02
RMM:   4    -0.186033414721E+04    0.61285E-04   -0.80843E-05  1527   0.614E-03    0.298E-02
RMM:   5    -0.186033412858E+04    0.18626E-04   -0.60859E-05  1533   0.649E-03    0.645E-03
RMM:   6    -0.186033412681E+04    0.17706E-05   -0.44281E-06  1541   0.159E-03    0.353E-03
RMM:   7    -0.186033412605E+04    0.76261E-06   -0.11847E-06  1368   0.922E-04    0.176E-03
RMM:   8    -0.186033412603E+04    0.21450E-07   -0.50487E-07  1203   0.585E-04
  20 F= -.18843947E+04 E0= -.18843946E+04  d E =-.715672E-03
quench:  g(F)=  0.000E+00 g(S)=  0.000E+00 dE (1.order)= 0.000E+00
 bond charge predicted
       N       E                     dE             d eps       ncg     rms          rms(c)
DAV:   1    -0.186033414266E+04   -0.16616E-04   -0.33182E-03  1744   0.738E-02    0.187E-02
RMM:   2    -0.186033415028E+04   -0.76188E-05   -0.87082E-05  1536   0.110E-02    0.772E-03
RMM:   3    -0.186033414960E+04    0.68318E-06   -0.27122E-06  1506   0.178E-03    0.459E-03
RMM:   4    -0.186033415013E+04   -0.53298E-06   -0.17188E-06  1420   0.117E-03    0.440E-03
RMM:   5    -0.186033415013E+04   -0.34197E-08   -0.39797E-07  1028   0.496E-04
  21 F= -.18843947E+04 E0= -.18843946E+04  d E =-.266328E-04
quench:  g(F)=  0.000E+00 g(S)=  0.000E+00 dE (1.order)= 0.000E+00
 bond charge predicted
       N       E                     dE             d eps       ncg     rms          rms(c)
DAV:   1    -0.186033489506E+04   -0.74493E-03   -0.35990E-02  1568   0.138E-01    0.596E-02
RMM:   2    -0.186033494056E+04   -0.45498E-04   -0.79257E-04  1531   0.173E-02    0.542E-02
RMM:   3    -0.186033490231E+04    0.38246E-04   -0.11453E-04  1457   0.504E-03    0.337E-02
RMM:   4    -0.186033489145E+04    0.10860E-04   -0.14997E-05  1355   0.224E-03    0.171E-02
RMM:   5    -0.186033488985E+04    0.16018E-05   -0.91370E-06  1323   0.164E-03    0.531E-03
RMM:   6    -0.186033488985E+04   -0.42201E-08   -0.88252E-07  1021   0.530E-04
  22 F= -.18843948E+04 E0= -.18843948E+04  d E =-.151075E-03
quench:  g(F)=  0.000E+00 g(S)=  0.000E+00 dE (1.order)= 0.000E+00
 bond charge predicted
       N       E                     dE             d eps       ncg     rms          rms(c)
DAV:   1    -0.186033515868E+04   -0.26883E-03   -0.66581E-02  1712   0.317E-01    0.890E-02
RMM:   2    -0.186033527574E+04   -0.11706E-03   -0.15289E-03  1536   0.432E-02    0.351E-02
RMM:   3    -0.186033525091E+04    0.24830E-04   -0.54553E-05  1524   0.718E-03    0.201E-02
RMM:   4    -0.186033524292E+04    0.79897E-05   -0.38081E-05  1523   0.528E-03    0.886E-03
RMM:   5    -0.186033524193E+04    0.98693E-06   -0.38097E-06  1412   0.146E-03    0.520E-03
RMM:   6    -0.186033524125E+04    0.68558E-06   -0.70580E-07  1169   0.626E-04    0.307E-03
RMM:   7    -0.186033524073E+04    0.51802E-06   -0.68458E-07  1300   0.688E-04    0.125E-03
RMM:   8    -0.186033524069E+04    0.39159E-07   -0.17282E-07   933   0.352E-04
  23 F= -.18843946E+04 E0= -.18843945E+04  d E =0.226810E-03
quench:  g(F)=  0.000E+00 g(S)=  0.000E+00 dE (1.order)= 0.000E+00
 bond charge predicted
       N       E                     dE             d eps       ncg     rms          rms(c)
DAV:   1    -0.186033492443E+04    0.31630E-03   -0.51553E-02  1664   0.278E-01    0.783E-02
RMM:   2    -0.186033501615E+04   -0.91724E-04   -0.11857E-03  1536   0.380E-02    0.311E-02
RMM:   3    -0.186033499836E+04    0.17793E-04   -0.43495E-05  1523   0.635E-03    0.178E-02
RMM:   4    -0.186033499609E+04    0.22744E-05   -0.26763E-05  1515   0.430E-03    0.154E-02
RMM:   5    -0.186033499246E+04    0.36278E-05   -0.57853E-06  1444   0.174E-03    0.452E-03
RMM:   6    -0.186033499212E+04    0.33353E-06   -0.53756E-07  1141   0.616E-04    0.238E-03
RMM:   7    -0.186033499180E+04    0.32407E-06   -0.52865E-07  1229   0.617E-04    0.104E-03
RMM:   8    -0.186033499171E+04    0.88548E-07   -0.12162E-07   901   0.305E-04
  24 F= -.18843949E+04 E0= -.18843948E+04  d E =-.243811E-03
quench:  g(F)=  0.000E+00 g(S)=  0.000E+00 dE (1.order)= 0.000E+00
 bond charge predicted
       N       E                     dE             d eps       ncg     rms          rms(c)
DAV:   1    -0.186033286916E+04    0.21226E-02   -0.60422E-02  1680   0.297E-01    0.927E-02
RMM:   2    -0.186033297666E+04   -0.10750E-03   -0.14424E-03  1536   0.421E-02    0.462E-02
RMM:   3    -0.186033296041E+04    0.16251E-04   -0.70570E-05  1521   0.763E-03    0.434E-02
RMM:   4    -0.186033294420E+04    0.16208E-04   -0.21835E-05  1490   0.327E-03    0.242E-02
RMM:   5    -0.186033293769E+04    0.65083E-05   -0.24935E-05  1518   0.409E-03    0.771E-03
RMM:   6    -0.186033293674E+04    0.94553E-06   -0.24275E-06  1336   0.119E-03    0.287E-03
RMM:   7    -0.186033293648E+04    0.26116E-06   -0.73701E-07  1301   0.769E-04    0.156E-03
RMM:   8    -0.186033293657E+04   -0.88316E-07   -0.21632E-07   953   0.416E-04
  25 F= -.18843938E+04 E0= -.18843938E+04  d E =0.101469E-02
quench:  g(F)=  0.000E+00 g(S)=  0.000E+00 dE (1.order)= 0.000E+00
 bond charge predicted
       N       E                     dE             d eps       ncg     rms          rms(c)
DAV:   1    -0.186033481420E+04   -0.18777E-02   -0.51597E-02  1648   0.274E-01    0.857E-02
RMM:   2    -0.186033490734E+04   -0.93138E-04   -0.12307E-03  1536   0.388E-02    0.429E-02
RMM:   3    -0.186033489443E+04    0.12916E-04   -0.61916E-05  1519   0.708E-03    0.409E-02
RMM:   4    -0.186033488016E+04    0.14261E-04   -0.18376E-05  1485   0.300E-03    0.224E-02
RMM:   5    -0.186033487548E+04    0.46809E-05   -0.21108E-05  1517   0.379E-03    0.716E-03
RMM:   6    -0.186033487479E+04    0.69826E-06   -0.20082E-06  1290   0.109E-03    0.262E-03
RMM:   7    -0.186033487455E+04    0.24021E-06   -0.58204E-07  1235   0.693E-04    0.141E-03
RMM:   8    -0.186033487443E+04    0.11528E-06   -0.14226E-07   909   0.354E-04    0.490E-04
RMM:   9    -0.186033487451E+04   -0.83033E-07   -0.72792E-08   849   0.218E-04
  26 F= -.18843948E+04 E0= -.18843947E+04  d E =-.982510E-03
quench:  g(F)=  0.000E+00 g(S)=  0.000E+00 dE (1.order)= 0.000E+00
 bond charge predicted
       N       E                     dE             d eps       ncg     rms          rms(c)
DAV:   1    -0.186033504544E+04   -0.17101E-03   -0.61731E-02  1696   0.298E-01    0.112E-01
RMM:   2    -0.186033516337E+04   -0.11792E-03   -0.15303E-03  1536   0.422E-02    0.582E-02
RMM:   3    -0.186033514985E+04    0.13511E-04   -0.13592E-04  1524   0.875E-03    0.490E-02
RMM:   4    -0.186033510684E+04    0.43010E-04   -0.41993E-05  1511   0.446E-03    0.222E-02
RMM:   5    -0.186033510078E+04    0.60629E-05   -0.25694E-05  1520   0.417E-03    0.505E-03
RMM:   6    -0.186033510024E+04    0.53986E-06   -0.18011E-06  1364   0.105E-03    0.272E-03
RMM:   7    -0.186033509999E+04    0.24836E-06   -0.52546E-07  1197   0.629E-04    0.141E-03
RMM:   8    -0.186033510002E+04   -0.30268E-07   -0.20979E-07   947   0.399E-04
  27 F= -.18843946E+04 E0= -.18843945E+04  d E =0.209382E-03
quench:  g(F)=  0.000E+00 g(S)=  0.000E+00 dE (1.order)= 0.000E+00
 bond charge predicted
       N       E                     dE             d eps       ncg     rms          rms(c)
DAV:   1    -0.186033488693E+04    0.21306E-03   -0.53008E-02  1696   0.276E-01    0.104E-01
RMM:   2    -0.186033499035E+04   -0.10342E-03   -0.13146E-03  1536   0.391E-02    0.541E-02
RMM:   3    -0.186033497848E+04    0.11864E-04   -0.11774E-04  1524   0.812E-03    0.453E-02
RMM:   4    -0.186033494261E+04    0.35878E-04   -0.35886E-05  1506   0.412E-03    0.202E-02
RMM:   5    -0.186033493846E+04    0.41420E-05   -0.21701E-05  1518   0.385E-03    0.455E-03
RMM:   6    -0.186033493818E+04    0.28685E-06   -0.14472E-06  1334   0.951E-04    0.244E-03
RMM:   7    -0.186033493795E+04    0.22644E-06   -0.41471E-07  1113   0.568E-04    0.126E-03
RMM:   8    -0.186033493787E+04    0.84023E-07   -0.15821E-07   912   0.356E-04
  28 F= -.18843948E+04 E0= -.18843948E+04  d E =-.234750E-03
quench:  g(F)=  0.000E+00 g(S)=  0.000E+00 dE (1.order)= 0.000E+00
 bond charge predicted
       N       E                     dE             d eps       ncg     rms          rms(c)
DAV:   1    -0.186033333119E+04    0.16068E-02   -0.59347E-02  1712   0.302E-01    0.990E-02
RMM:   2    -0.186033343858E+04   -0.10739E-03   -0.14833E-03  1536   0.431E-02    0.405E-02
RMM:   3    -0.186033341235E+04    0.26235E-04   -0.57917E-05  1523   0.748E-03    0.277E-02
RMM:   4    -0.186033341136E+04    0.99085E-06   -0.39090E-05  1518   0.483E-03    0.229E-02
RMM:   5    -0.186033340149E+04    0.98637E-05   -0.15183E-05  1498   0.275E-03    0.690E-03
RMM:   6    -0.186033340052E+04    0.96968E-06   -0.13684E-06  1329   0.101E-03    0.293E-03
RMM:   7    -0.186033340009E+04    0.43187E-06   -0.10845E-06  1371   0.859E-04    0.137E-03
RMM:   8    -0.186033340015E+04   -0.60973E-07   -0.19235E-07   943   0.394E-04
  29 F= -.18843941E+04 E0= -.18843940E+04  d E =0.731163E-03
quench:  g(F)=  0.000E+00 g(S)=  0.000E+00 dE (1.order)= 0.000E+00
 bond charge predicted
       N       E                     dE             d eps       ncg     rms          rms(c)
DAV:   1    -0.186033667332E+04   -0.32732E-02   -0.17436E-01  1536   0.480E-01    0.169E-01
RMM:   2    -0.186033702507E+04   -0.35175E-03   -0.47253E-03  1536   0.764E-02    0.137E-01
RMM:   3    -0.186033694893E+04    0.76140E-04   -0.28945E-04  1539   0.139E-02    0.918E-02
RMM:   4    -0.186033691466E+04    0.34271E-04   -0.18361E-04  1534   0.101E-02    0.720E-02
RMM:   5    -0.186033685842E+04    0.56241E-04   -0.75037E-05  1529   0.684E-03    0.134E-02
RMM:   6    -0.186033685779E+04    0.63366E-06   -0.79454E-06  1452   0.222E-03    0.677E-03
RMM:   7    -0.186033685780E+04   -0.15847E-07   -0.26090E-06  1455   0.143E-03    0.340E-03
RMM:   8    -0.186033685900E+04   -0.12001E-05   -0.83805E-07  1332   0.809E-04    0.104E-03
RMM:   9    -0.186033686019E+04   -0.11911E-05   -0.15827E-07   928   0.321E-04    0.660E-04
RMM:  10    -0.186033686264E+04   -0.24424E-05   -0.45152E-07  1143   0.451E-04    0.312E-04
RMM:  11    -0.186033686371E+04   -0.10789E-05   -0.91659E-08   854   0.219E-04    0.221E-04
RMM:  12    -0.186033686482E+04   -0.11091E-05   -0.95230E-08   858   0.199E-04    0.102E-04
RMM:  13    -0.186033686528E+04   -0.45914E-06   -0.32410E-08   676   0.126E-04    0.692E-05
RMM:  14    -0.186033686569E+04   -0.40804E-06   -0.23328E-08   636   0.110E-04    0.509E-05
RMM:  15    -0.186033686590E+04   -0.20720E-06   -0.85024E-09   472   0.879E-05    0.254E-05
RMM:  16    -0.186033686603E+04   -0.13319E-06   -0.80045E-09   488   0.877E-05    0.159E-05
RMM:  17    -0.186033686608E+04   -0.51659E-07   -0.24101E-09   369   0.757E-05
  30 F= -.18843936E+04 E0= -.18843935E+04  d E =0.482989E-03
quench:  g(F)=  0.000E+00 g(S)=  0.000E+00 dE (1.order)= 0.000E+00
 bond charge predicted
       N       E                     dE             d eps       ncg     rms          rms(c)
DAV:   1    -0.186033501476E+04    0.18513E-02   -0.44140E-02  1648   0.241E-01    0.849E-02
RMM:   2    -0.186033509702E+04   -0.82267E-04   -0.11725E-03  1536   0.390E-02    0.667E-02
RMM:   3    -0.186033507732E+04    0.19706E-04   -0.47173E-05  1532   0.678E-03    0.432E-02
RMM:   4    -0.186033508908E+04   -0.11762E-04   -0.55796E-05  1530   0.584E-03    0.413E-02
RMM:   5    -0.186033506567E+04    0.23410E-04   -0.21567E-05  1496   0.293E-03    0.794E-03
RMM:   6    -0.186033506540E+04    0.27299E-06   -0.21650E-06  1318   0.122E-03    0.370E-03
RMM:   7    -0.186033506535E+04    0.41604E-07   -0.83739E-07  1315   0.807E-04
  31 F= -.18843949E+04 E0= -.18843948E+04  d E =-.128695E-02
quench:  g(F)=  0.000E+00 g(S)=  0.000E+00 dE (1.order)= 0.000E+00
 bond charge predicted
       N       E                     dE             d eps       ncg     rms          rms(c)
DAV:   1    -0.186033581046E+04   -0.74507E-03   -0.37393E-02  1600   0.145E-01    0.595E-02
RMM:   2    -0.186033585815E+04   -0.47693E-04   -0.82267E-04  1533   0.183E-02    0.537E-02
RMM:   3    -0.186033582137E+04    0.36781E-04   -0.11567E-04  1463   0.514E-03    0.338E-02
RMM:   4    -0.186033581020E+04    0.11173E-04   -0.14974E-05  1356   0.225E-03    0.172E-02
RMM:   5    -0.186033580867E+04    0.15333E-05   -0.94627E-06  1347   0.169E-03    0.528E-03
RMM:   6    -0.186033580878E+04   -0.11131E-06   -0.92322E-07  1033   0.544E-04    0.188E-03
RMM:   7    -0.186033580906E+04   -0.28333E-06   -0.20112E-07   899   0.309E-04    0.701E-04
RMM:   8    -0.186033580929E+04   -0.22419E-06   -0.42367E-08   711   0.166E-04    0.296E-04
RMM:   9    -0.186033580955E+04   -0.26924E-06   -0.24280E-08   690   0.130E-04    0.209E-04
RMM:  10    -0.186033580995E+04   -0.39859E-06   -0.34696E-08   764   0.138E-04    0.124E-04
RMM:  11    -0.186033581024E+04   -0.28711E-06   -0.19689E-08   572   0.103E-04    0.672E-05
RMM:  12    -0.186033581049E+04   -0.24478E-06   -0.16007E-08   611   0.102E-04    0.414E-05
RMM:  13    -0.186033581063E+04   -0.14047E-06   -0.81849E-09   473   0.858E-05    0.227E-05
RMM:  14    -0.186033581070E+04   -0.75117E-07   -0.28442E-09   373   0.765E-05
  32 F= -.18843951E+04 E0= -.18843950E+04  d E =-.160614E-03
quench:  g(F)=  0.000E+00 g(S)=  0.000E+00 dE (1.order)= 0.000E+00
 bond charge predicted
       N       E                     dE             d eps       ncg     rms          rms(c)
DAV:   1    -0.186033521138E+04    0.59925E-03   -0.73314E-02  1664   0.346E-01    0.112E-01
RMM:   2    -0.186033534093E+04   -0.12955E-03   -0.17361E-03  1536   0.476E-02    0.330E-02
RMM:   3    -0.186033532013E+04    0.20793E-04   -0.76032E-05  1531   0.820E-03    0.292E-02
RMM:   4    -0.186033530658E+04    0.13557E-04   -0.21781E-05  1505   0.336E-03    0.163E-02
RMM:   5    -0.186033530239E+04    0.41905E-05   -0.24184E-05  1525   0.409E-03    0.341E-03
RMM:   6    -0.186033530195E+04    0.43366E-06   -0.94260E-07  1333   0.860E-04    0.175E-03
RMM:   7    -0.186033530173E+04    0.22753E-06   -0.43678E-07  1189   0.572E-04    0.694E-04
RMM:   8    -0.186033530181E+04   -0.79279E-07   -0.12803E-07   907   0.303E-04
  33 F= -.18843947E+04 E0= -.18843946E+04  d E =0.388977E-03
quench:  g(F)=  0.000E+00 g(S)=  0.000E+00 dE (1.order)= 0.000E+00
 bond charge predicted
       N       E                     dE             d eps       ncg     rms          rms(c)
DAV:   1    -0.186033573639E+04   -0.43466E-03   -0.49220E-02  1664   0.283E-01    0.916E-02
RMM:   2    -0.186033582331E+04   -0.86923E-04   -0.11660E-03  1536   0.389E-02    0.280E-02
RMM:   3    -0.186033581063E+04    0.12684E-04   -0.55251E-05  1530   0.681E-03    0.262E-02
RMM:   4    -0.186033579948E+04    0.11147E-04   -0.15739E-05  1497   0.278E-03    0.128E-02
RMM:   5    -0.186033579707E+04    0.24133E-05   -0.16432E-05  1519   0.339E-03    0.277E-03
RMM:   6    -0.186033579692E+04    0.14396E-06   -0.59178E-07  1234   0.694E-04    0.145E-03
RMM:   7    -0.186033579681E+04    0.11279E-06   -0.30215E-07  1031   0.496E-04    0.547E-04
RMM:   8    -0.186033579681E+04    0.53842E-08   -0.87829E-08   886   0.255E-04
  34 F= -.18843951E+04 E0= -.18843950E+04  d E =-.370392E-03
quench:  g(F)=  0.000E+00 g(S)=  0.000E+00 dE (1.order)= 0.000E+00
 bond charge predicted
       N       E                     dE             d eps       ncg     rms          rms(c)
DAV:   1    -0.186033555627E+04    0.24054E-03   -0.58752E-02  1696   0.312E-01    0.696E-02
RMM:   2    -0.186033566324E+04   -0.10697E-03   -0.12952E-03  1536   0.413E-02    0.310E-02
RMM:   3    -0.186033565465E+04    0.85962E-05   -0.56638E-05  1535   0.686E-03    0.268E-02
RMM:   4    -0.186033564386E+04    0.10787E-04   -0.15381E-05  1504   0.288E-03    0.146E-02
RMM:   5    -0.186033564126E+04    0.26001E-05   -0.15918E-05  1521   0.364E-03    0.303E-03
RMM:   6    -0.186033564112E+04    0.13932E-06   -0.63648E-07  1253   0.724E-04    0.161E-03
RMM:   7    -0.186033564109E+04    0.32029E-07   -0.20743E-07   924   0.433E-04
  35 F= -.18843948E+04 E0= -.18843947E+04  d E =0.301218E-03
quench:  g(F)=  0.000E+00 g(S)=  0.000E+00 dE (1.order)= 0.000E+00
 bond charge predicted
       N       E                     dE             d eps       ncg     rms          rms(c)
DAV:   1    -0.186033571971E+04   -0.78588E-04   -0.56899E-02  1664   0.307E-01    0.685E-02
RMM:   2    -0.186033582222E+04   -0.10251E-03   -0.12545E-03  1536   0.406E-02    0.306E-02
RMM:   3    -0.186033581362E+04    0.85972E-05   -0.55138E-05  1534   0.675E-03    0.264E-02
RMM:   4    -0.186033580330E+04    0.10315E-04   -0.14904E-05  1504   0.283E-03    0.143E-02
RMM:   5    -0.186033580087E+04    0.24299E-05   -0.15351E-05  1521   0.357E-03    0.296E-03
RMM:   6    -0.186033580082E+04    0.58120E-07   -0.59064E-07  1225   0.706E-04
  36 F= -.18843951E+04 E0= -.18843950E+04  d E =-.300267E-03
quench:  g(F)=  0.000E+00 g(S)=  0.000E+00 dE (1.order)= 0.000E+00
 bond charge predicted
       N       E                     dE             d eps       ncg     rms          rms(c)
DAV:   1    -0.186033564843E+04    0.15244E-03   -0.52789E-02  1680   0.291E-01    0.696E-02
RMM:   2    -0.186033574779E+04   -0.99359E-04   -0.12650E-03  1536   0.400E-02    0.309E-02
RMM:   3    -0.186033573674E+04    0.11049E-04   -0.54730E-05  1534   0.681E-03    0.257E-02
RMM:   4    -0.186033572719E+04    0.95474E-05   -0.16174E-05  1503   0.296E-03    0.153E-02
RMM:   5    -0.186033572289E+04    0.43016E-05   -0.15354E-05  1521   0.348E-03    0.312E-03
RMM:   6    -0.186033572256E+04    0.33129E-06   -0.85506E-07  1313   0.772E-04    0.174E-03
RMM:   7    -0.186033572242E+04    0.13568E-06   -0.29459E-07  1025   0.480E-04    0.879E-04
RMM:   8    -0.186033572244E+04   -0.13984E-07   -0.11612E-07   903   0.294E-04
  37 F= -.18843947E+04 E0= -.18843947E+04  d E =0.318920E-03
quench:  g(F)=  0.000E+00 g(S)=  0.000E+00 dE (1.order)= 0.000E+00
 bond charge predicted
       N       E                     dE             d eps       ncg     rms          rms(c)
DAV:   1    -0.186033578221E+04   -0.59790E-04   -0.41405E-02  1664   0.257E-01    0.620E-02
RMM:   2    -0.186033585977E+04   -0.77553E-04   -0.99565E-04  1536   0.354E-02    0.281E-02
RMM:   3    -0.186033585171E+04    0.80595E-05   -0.45364E-05  1530   0.609E-03    0.238E-02
RMM:   4    -0.186033584347E+04    0.82374E-05   -0.13054E-05  1497   0.264E-03    0.133E-02
RMM:   5    -0.186033584063E+04    0.28363E-05   -0.12144E-05  1515   0.310E-03    0.276E-03
RMM:   6    -0.186033584050E+04    0.13506E-06   -0.68081E-07  1250   0.689E-04    0.153E-03
RMM:   7    -0.186033584043E+04    0.63985E-07   -0.23952E-07   957   0.441E-04
  38 F= -.18843951E+04 E0= -.18843950E+04  d E =-.312721E-03
quench:  g(F)=  0.000E+00 g(S)=  0.000E+00 dE (1.order)= 0.000E+00
 bond charge predicted
       N       E                     dE             d eps       ncg     rms          rms(c)
DAV:   1    -0.186033535291E+04    0.48759E-03   -0.47891E-02  1696   0.277E-01    0.771E-02
RMM:   2    -0.186033544372E+04   -0.90815E-04   -0.12397E-03  1536   0.397E-02    0.303E-02
RMM:   3    -0.186033543012E+04    0.13609E-04   -0.58483E-05  1530   0.700E-03    0.271E-02
RMM:   4    -0.186033542006E+04    0.10056E-04   -0.16344E-05  1505   0.293E-03    0.146E-02
RMM:   5    -0.186033541597E+04    0.40941E-05   -0.16972E-05  1521   0.354E-03    0.350E-03
RMM:   6    -0.186033541546E+04    0.50131E-06   -0.10379E-06  1360   0.844E-04    0.179E-03
RMM:   7    -0.186033541522E+04    0.24187E-06   -0.37178E-07  1125   0.523E-04    0.843E-04
RMM:   8    -0.186033541523E+04   -0.40891E-08   -0.13054E-07   904   0.322E-04
  39 F= -.18843947E+04 E0= -.18843946E+04  d E =0.338972E-03
quench:  g(F)=  0.000E+00 g(S)=  0.000E+00 dE (1.order)= 0.000E+00
 bond charge predicted
       N       E                     dE             d eps       ncg     rms          rms(c)
DAV:   1    -0.186033476483E+04    0.65039E-03   -0.17172E-01  1568   0.527E-01    0.124E-01
RMM:   2    -0.186033509591E+04   -0.33107E-03   -0.41132E-03  1536   0.745E-02    0.590E-02
RMM:   3    -0.186033506655E+04    0.29354E-04   -0.21028E-04  1540   0.127E-02    0.597E-02
RMM:   4    -0.186033502005E+04    0.46498E-04   -0.48655E-05  1527   0.506E-03    0.276E-02
RMM:   5    -0.186033501109E+04    0.89684E-05   -0.57356E-05  1534   0.671E-03    0.637E-03
RMM:   6    -0.186033501030E+04    0.78954E-06   -0.26771E-06  1474   0.139E-03    0.299E-03
RMM:   7    -0.186033501008E+04    0.21742E-06   -0.86423E-07  1352   0.808E-04    0.152E-03
RMM:   8    -0.186033501012E+04   -0.46275E-07   -0.21933E-07   956   0.425E-04
  40 F= -.18843951E+04 E0= -.18843950E+04  d E =-.409285E-03
quench:  g(F)=  0.000E+00 g(S)=  0.000E+00 dE (1.order)= 0.000E+00
 bond charge predicted
       N       E                     dE             d eps       ncg     rms          rms(c)
DAV:   1    -0.186033507716E+04   -0.67080E-04   -0.40690E-03  1728   0.809E-02    0.186E-02
RMM:   2    -0.186033508530E+04   -0.81451E-05   -0.95511E-05  1536   0.115E-02    0.766E-03
RMM:   3    -0.186033508430E+04    0.10082E-05   -0.26793E-06  1506   0.179E-03    0.459E-03
RMM:   4    -0.186033508435E+04   -0.59285E-07   -0.21044E-06  1456   0.132E-03    0.246E-03
RMM:   5    -0.186033508441E+04   -0.59736E-07   -0.18473E-07   942   0.341E-04
  41 F= -.18843951E+04 E0= -.18843951E+04  d E =-.241779E-04
quench:  g(F)=  0.000E+00 g(S)=  0.000E+00 dE (1.order)= 0.000E+00
 bond charge predicted
       N       E                     dE             d eps       ncg     rms          rms(c)
DAV:   1    -0.186033590267E+04   -0.81831E-03   -0.39684E-02  1536   0.164E-01    0.622E-02
RMM:   2    -0.186033595609E+04   -0.53422E-04   -0.88954E-04  1536   0.214E-02    0.535E-02
RMM:   3    -0.186033592050E+04    0.35584E-04   -0.12115E-04  1504   0.556E-03    0.364E-02
RMM:   4    -0.186033590771E+04    0.12789E-04   -0.15123E-05  1426   0.237E-03    0.191E-02
RMM:   5    -0.186033590557E+04    0.21433E-05   -0.11786E-05  1441   0.203E-03    0.556E-03
RMM:   6    -0.186033590543E+04    0.13664E-06   -0.10007E-06  1064   0.583E-04    0.189E-03
RMM:   7    -0.186033590547E+04   -0.30748E-07   -0.19574E-07   910   0.318E-04
  42 F= -.18843953E+04 E0= -.18843953E+04  d E =-.190821E-03
quench:  g(F)=  0.000E+00 g(S)=  0.000E+00 dE (1.order)= 0.000E+00
 bond charge predicted
       N       E                     dE             d eps       ncg     rms          rms(c)
DAV:   1    -0.186033529030E+04    0.61514E-03   -0.48569E-02  1680   0.278E-01    0.877E-02
RMM:   2    -0.186033538252E+04   -0.92222E-04   -0.13202E-03  1536   0.408E-02    0.309E-02
RMM:   3    -0.186033536209E+04    0.20431E-04   -0.59510E-05  1530   0.726E-03    0.245E-02
RMM:   4    -0.186033535573E+04    0.63600E-05   -0.18732E-05  1509   0.318E-03    0.165E-02
RMM:   5    -0.186033534979E+04    0.59334E-05   -0.18158E-05  1523   0.352E-03    0.401E-03
RMM:   6    -0.186033534911E+04    0.68439E-06   -0.12806E-06  1380   0.951E-04    0.202E-03
RMM:   7    -0.186033534881E+04    0.29527E-06   -0.50302E-07  1241   0.582E-04    0.103E-03
RMM:   8    -0.186033534886E+04   -0.43336E-07   -0.16770E-07   917   0.366E-04
  43 F= -.18843949E+04 E0= -.18843948E+04  d E =0.402335E-03
quench:  g(F)=  0.000E+00 g(S)=  0.000E+00 dE (1.order)= 0.000E+00
 bond charge predicted
       N       E                     dE             d eps       ncg     rms          rms(c)
DAV:   1    -0.186033584968E+04   -0.50087E-03   -0.46005E-02  1696   0.270E-01    0.855E-02
RMM:   2    -0.186033593670E+04   -0.87015E-04   -0.12486E-03  1536   0.396E-02    0.302E-02
RMM:   3    -0.186033591845E+04    0.18249E-04   -0.57085E-05  1530   0.708E-03    0.243E-02
RMM:   4    -0.186033591220E+04    0.62480E-05   -0.17528E-05  1507   0.307E-03    0.159E-02
RMM:   5    -0.186033590738E+04    0.48164E-05   -0.17239E-05  1521   0.344E-03    0.388E-03
RMM:   6    -0.186033590691E+04    0.47592E-06   -0.11651E-06  1368   0.912E-04    0.194E-03
RMM:   7    -0.186033590666E+04    0.24536E-06   -0.44278E-07  1194   0.553E-04    0.964E-04
RMM:   8    -0.186033590661E+04    0.48705E-07   -0.13973E-07   903   0.337E-04
  44 F= -.18843953E+04 E0= -.18843953E+04  d E =-.402693E-03
quench:  g(F)=  0.000E+00 g(S)=  0.000E+00 dE (1.order)= 0.000E+00
 bond charge predicted
       N       E                     dE             d eps       ncg     rms          rms(c)
DAV:   1    -0.186033521297E+04    0.69369E-03   -0.49097E-02  1712   0.278E-01    0.920E-02
RMM:   2    -0.186033530610E+04   -0.93126E-04   -0.13477E-03  1536   0.411E-02    0.314E-02
RMM:   3    -0.186033528465E+04    0.21451E-04   -0.61162E-05  1530   0.736E-03    0.244E-02
RMM:   4    -0.186033527879E+04    0.58517E-05   -0.19717E-05  1510   0.327E-03    0.171E-02
RMM:   5    -0.186033527291E+04    0.58875E-05   -0.18507E-05  1523   0.351E-03    0.416E-03
RMM:   6    -0.186033527220E+04    0.71010E-06   -0.12876E-06  1377   0.969E-04    0.207E-03
RMM:   7    -0.186033527182E+04    0.37439E-06   -0.50274E-07  1237   0.585E-04    0.105E-03
RMM:   8    -0.186033527176E+04    0.58688E-07   -0.15087E-07   909   0.353E-04
  45 F= -.18843949E+04 E0= -.18843948E+04  d E =0.444027E-03
quench:  g(F)=  0.000E+00 g(S)=  0.000E+00 dE (1.order)= 0.000E+00
 bond charge predicted
       N       E                     dE             d eps       ncg     rms          rms(c)
DAV:   1    -0.186033584975E+04   -0.57792E-03   -0.46711E-02  1696   0.271E-01    0.897E-02
RMM:   2    -0.186033593760E+04   -0.87857E-04   -0.12814E-03  1536   0.400E-02    0.307E-02
RMM:   3    -0.186033591742E+04    0.20187E-04   -0.58739E-05  1530   0.719E-03    0.241E-02
RMM:   4    -0.186033591179E+04    0.56277E-05   -0.18609E-05  1508   0.317E-03    0.165E-02
RMM:   5    -0.186033590641E+04    0.53744E-05   -0.17703E-05  1522   0.344E-03    0.408E-03
RMM:   6    -0.186033590585E+04    0.56943E-06   -0.12201E-06  1372   0.941E-04    0.202E-03
RMM:   7    -0.186033590554E+04    0.30619E-06   -0.47226E-07  1216   0.569E-04    0.102E-03
RMM:   8    -0.186033590547E+04    0.73938E-07   -0.14224E-07   910   0.342E-04
  46 F= -.18843953E+04 E0= -.18843953E+04  d E =-.443119E-03
quench:  g(F)=  0.000E+00 g(S)=  0.000E+00 dE (1.order)= 0.000E+00
 bond charge predicted
       N       E                     dE             d eps       ncg     rms          rms(c)
DAV:   1    -0.186033516740E+04    0.73814E-03   -0.49021E-02  1696   0.278E-01    0.935E-02
RMM:   2    -0.186033525997E+04   -0.92568E-04   -0.13512E-03  1536   0.411E-02    0.317E-02
RMM:   3    -0.186033523820E+04    0.21770E-04   -0.62132E-05  1530   0.739E-03    0.247E-02
RMM:   4    -0.186033523230E+04    0.58997E-05   -0.19933E-05  1509   0.328E-03    0.172E-02
RMM:   5    -0.186033522642E+04    0.58807E-05   -0.18816E-05  1523   0.353E-03    0.424E-03
RMM:   6    -0.186033522571E+04    0.70913E-06   -0.13047E-06  1375   0.977E-04    0.210E-03
RMM:   7    -0.186033522534E+04    0.36470E-06   -0.51281E-07  1242   0.590E-04    0.107E-03
RMM:   8    -0.186033522528E+04    0.65163E-07   -0.14918E-07   908   0.352E-04
  47 F= -.18843949E+04 E0= -.18843948E+04  d E =0.469424E-03
quench:  g(F)=  0.000E+00 g(S)=  0.000E+00 dE (1.order)= 0.000E+00
 bond charge predicted
       N       E                     dE             d eps       ncg     rms          rms(c)
DAV:   1    -0.186033584712E+04   -0.62178E-03   -0.50113E-02  1696   0.281E-01    0.946E-02
RMM:   2    -0.186033594117E+04   -0.94048E-04   -0.13814E-03  1536   0.415E-02    0.319E-02
RMM:   3    -0.186033591866E+04    0.22506E-04   -0.63122E-05  1530   0.747E-03    0.246E-02
RMM:   4    -0.186033591316E+04    0.54968E-05   -0.20575E-05  1510   0.334E-03    0.174E-02
RMM:   5    -0.186033590713E+04    0.60321E-05   -0.18935E-05  1523   0.353E-03    0.431E-03
RMM:   6    -0.186033590649E+04    0.64232E-06   -0.13336E-06  1379   0.989E-04    0.212E-03
RMM:   7    -0.186033590614E+04    0.34635E-06   -0.52081E-07  1247   0.593E-04    0.108E-03
RMM:   8    -0.186033590606E+04    0.81302E-07   -0.15271E-07   911   0.357E-04
  48 F= -.18843953E+04 E0= -.18843953E+04  d E =-.469741E-03
quench:  g(F)=  0.000E+00 g(S)=  0.000E+00 dE (1.order)= 0.000E+00
 bond charge predicted
       N       E                     dE             d eps       ncg     rms          rms(c)
DAV:   1    -0.186033516727E+04    0.73887E-03   -0.49411E-02  1696   0.279E-01    0.946E-02
RMM:   2    -0.186033526071E+04   -0.93431E-04   -0.13655E-03  1536   0.413E-02    0.317E-02
RMM:   3    -0.186033523811E+04    0.22595E-04   -0.61871E-05  1530   0.742E-03    0.241E-02
RMM:   4    -0.186033523297E+04    0.51375E-05   -0.20753E-05  1510   0.337E-03    0.176E-02
RMM:   5    -0.186033522684E+04    0.61374E-05   -0.18531E-05  1521   0.348E-03    0.429E-03
RMM:   6    -0.186033522613E+04    0.70909E-06   -0.13256E-06  1374   0.991E-04    0.213E-03
RMM:   7    -0.186033522576E+04    0.37052E-06   -0.52220E-07  1251   0.594E-04    0.108E-03
RMM:   8    -0.186033522569E+04    0.67274E-07   -0.15030E-07   908   0.355E-04
  49 F= -.18843949E+04 E0= -.18843948E+04  d E =0.467587E-03
quench:  g(F)=  0.000E+00 g(S)=  0.000E+00 dE (1.order)= 0.000E+00
 bond charge predicted
       N       E                     dE             d eps       ncg     rms          rms(c)
DAV:   1    -0.186033578575E+04   -0.56000E-03   -0.14696E-01  1664   0.462E-01    0.111E-01
RMM:   2    -0.186033606825E+04   -0.28250E-03   -0.34266E-03  1536   0.647E-02    0.665E-02
RMM:   3    -0.186033603626E+04    0.31988E-04   -0.20754E-04  1542   0.115E-02    0.560E-02
RMM:   4    -0.186033598741E+04    0.48856E-04   -0.50797E-05  1529   0.530E-03    0.255E-02
RMM:   5    -0.186033597873E+04    0.86756E-05   -0.44214E-05  1533   0.575E-03    0.534E-03
RMM:   6    -0.186033597794E+04    0.78723E-06   -0.27324E-06  1458   0.130E-03    0.328E-03
RMM:   7    -0.186033597754E+04    0.40117E-06   -0.80642E-07  1317   0.741E-04    0.182E-03
RMM:   8    -0.186033597745E+04    0.92899E-07   -0.30593E-07  1028   0.476E-04
  50 F= -.18843955E+04 E0= -.18843955E+04  d E =-.680620E-03
quench:  g(F)=  0.000E+00 g(S)=  0.000E+00 dE (1.order)= 0.000E+00
 bond charge predicted
       N       E                     dE             d eps       ncg     rms          rms(c)
DAV:   1    -0.186033658059E+04   -0.60305E-03   -0.10065E-01  1648   0.368E-01    0.611E-02
RMM:   2    -0.186033675479E+04   -0.17420E-03   -0.19335E-03  1536   0.473E-02    0.338E-02
RMM:   3    -0.186033674231E+04    0.12480E-04   -0.43656E-05  1539   0.711E-03    0.249E-02
RMM:   4    -0.186033674316E+04   -0.85008E-06   -0.21934E-05  1526   0.378E-03    0.246E-02
RMM:   5    -0.186033673590E+04    0.72529E-05   -0.15416E-05  1526   0.323E-03    0.429E-03
RMM:   6    -0.186033673584E+04    0.64349E-07   -0.11314E-06  1327   0.999E-04    0.226E-03
RMM:   7    -0.186033673598E+04   -0.14206E-06   -0.21020E-07   953   0.418E-04    0.120E-03
RMM:   8    -0.186033673622E+04   -0.24335E-06   -0.89224E-08   902   0.269E-04    0.473E-04
RMM:   9    -0.186033673650E+04   -0.27845E-06   -0.50963E-08   854   0.190E-04    0.257E-04
RMM:  10    -0.186033673690E+04   -0.39663E-06   -0.50973E-08   812   0.167E-04    0.162E-04
RMM:  11    -0.186033673728E+04   -0.38336E-06   -0.47144E-08   789   0.152E-04    0.785E-05
RMM:  12    -0.186033673749E+04   -0.20418E-06   -0.22414E-08   644   0.111E-04    0.535E-05
RMM:  13    -0.186033673764E+04   -0.15162E-06   -0.99697E-09   533   0.919E-05    0.302E-05
RMM:  14    -0.186033673773E+04   -0.90702E-07   -0.43427E-09   426   0.811E-05
  51 F= -.18843957E+04 E0= -.18843956E+04  d E =-.155821E-03
quench:  g(F)=  0.000E+00 g(S)=  0.000E+00 dE (1.order)= 0.000E+00
 bond charge predicted
       N       E                     dE             d eps       ncg     rms          rms(c)
DAV:   1    -0.186033757791E+04   -0.84027E-03   -0.39840E-02  1536   0.165E-01    0.615E-02
RMM:   2    -0.186033763092E+04   -0.53015E-04   -0.89233E-04  1536   0.215E-02    0.533E-02
RMM:   3    -0.186033759571E+04    0.35211E-04   -0.11987E-04  1504   0.555E-03    0.361E-02
RMM:   4    -0.186033758306E+04    0.12648E-04   -0.14954E-05  1426   0.236E-03    0.191E-02
RMM:   5    -0.186033758078E+04    0.22867E-05   -0.11636E-05  1438   0.202E-03    0.557E-03
RMM:   6    -0.186033758062E+04    0.15176E-06   -0.10054E-06  1057   0.581E-04    0.189E-03
RMM:   7    -0.186033758067E+04   -0.44049E-07   -0.19698E-07   906   0.315E-04
  52 F= -.18843959E+04 E0= -.18843958E+04  d E =-.180172E-03
quench:  g(F)=  0.000E+00 g(S)=  0.000E+00 dE (1.order)= 0.000E+00
 bond charge predicted
       N       E                     dE             d eps       ncg     rms          rms(c)
DAV:   1    -0.186033689210E+04    0.68852E-03   -0.49374E-02  1632   0.279E-01    0.948E-02
RMM:   2    -0.186033698482E+04   -0.92723E-04   -0.13670E-03  1536   0.413E-02    0.318E-02
RMM:   3    -0.186033696116E+04    0.23663E-04   -0.61917E-05  1530   0.742E-03    0.240E-02
RMM:   4    -0.186033695617E+04    0.49922E-05   -0.21095E-05  1510   0.339E-03    0.177E-02
RMM:   5    -0.186033694934E+04    0.68291E-05   -0.18531E-05  1521   0.347E-03    0.437E-03
RMM:   6    -0.186033694857E+04    0.76943E-06   -0.13838E-06  1382   0.100E-03    0.217E-03
RMM:   7    -0.186033694826E+04    0.30769E-06   -0.56800E-07  1275   0.612E-04    0.113E-03
RMM:   8    -0.186033694833E+04   -0.64334E-07   -0.17549E-07   927   0.376E-04
  53 F= -.18843955E+04 E0= -.18843954E+04  d E =0.373970E-03
quench:  g(F)=  0.000E+00 g(S)=  0.000E+00 dE (1.order)= 0.000E+00
 bond charge predicted
       N       E                     dE             d eps       ncg     rms          rms(c)
DAV:   1    -0.186033752111E+04   -0.57284E-03   -0.50359E-02  1680   0.281E-01    0.959E-02
RMM:   2    -0.186033761570E+04   -0.94591E-04   -0.13926E-03  1536   0.417E-02    0.321E-02
RMM:   3    -0.186033759253E+04    0.23167E-04   -0.62842E-05  1530   0.749E-03    0.240E-02
RMM:   4    -0.186033758792E+04    0.46115E-05   -0.21532E-05  1510   0.344E-03    0.179E-02
RMM:   5    -0.186033758176E+04    0.61607E-05   -0.18570E-05  1520   0.347E-03    0.438E-03
RMM:   6    -0.186033758117E+04    0.58414E-06   -0.13575E-06  1379   0.101E-03    0.215E-03
RMM:   7    -0.186033758087E+04    0.30315E-06   -0.53132E-07  1257   0.599E-04    0.110E-03
RMM:   8    -0.186033758080E+04    0.67012E-07   -0.15204E-07   909   0.358E-04
  54 F= -.18843959E+04 E0= -.18843958E+04  d E =-.373439E-03
quench:  g(F)=  0.000E+00 g(S)=  0.000E+00 dE (1.order)= 0.000E+00
 bond charge predicted
       N       E                     dE             d eps       ncg     rms          rms(c)
DAV:   1    -0.186033689587E+04    0.68500E-03   -0.49569E-02  1712   0.279E-01    0.952E-02
RMM:   2    -0.186033698964E+04   -0.93769E-04   -0.13722E-03  1536   0.414E-02    0.318E-02
RMM:   3    -0.186033696653E+04    0.23113E-04   -0.61676E-05  1530   0.742E-03    0.238E-02
RMM:   4    -0.186033696185E+04    0.46775E-05   -0.21361E-05  1510   0.343E-03    0.179E-02
RMM:   5    -0.186033695550E+04    0.63518E-05   -0.18264E-05  1521   0.344E-03    0.434E-03
RMM:   6    -0.186033695476E+04    0.73350E-06   -0.13404E-06  1376   0.100E-03    0.215E-03
RMM:   7    -0.186033695437E+04    0.39325E-06   -0.52858E-07  1255   0.597E-04    0.111E-03
RMM:   8    -0.186033695430E+04    0.74360E-07   -0.15091E-07   907   0.357E-04
  55 F= -.18843955E+04 E0= -.18843954E+04  d E =0.366674E-03
quench:  g(F)=  0.000E+00 g(S)=  0.000E+00 dE (1.order)= 0.000E+00
 bond charge predicted
       N       E                     dE             d eps       ncg     rms          rms(c)
DAV:   1    -0.186033752235E+04   -0.56798E-03   -0.49884E-02  1696   0.280E-01    0.956E-02
RMM:   2    -0.186033761598E+04   -0.93624E-04   -0.13807E-03  1536   0.415E-02    0.319E-02
RMM:   3    -0.186033759260E+04    0.23374E-04   -0.61937E-05  1530   0.745E-03    0.237E-02
RMM:   4    -0.186033758821E+04    0.43953E-05   -0.21636E-05  1510   0.346E-03    0.179E-02
RMM:   5    -0.186033758184E+04    0.63633E-05   -0.18177E-05  1521   0.343E-03    0.437E-03
RMM:   6    -0.186033758120E+04    0.64659E-06   -0.13504E-06  1378   0.100E-03    0.215E-03
RMM:   7    -0.186033758085E+04    0.35019E-06   -0.52704E-07  1254   0.596E-04    0.110E-03
RMM:   8    -0.186033758076E+04    0.85725E-07   -0.15293E-07   907   0.359E-04
  56 F= -.18843959E+04 E0= -.18843958E+04  d E =-.366411E-03
quench:  g(F)=  0.000E+00 g(S)=  0.000E+00 dE (1.order)= 0.000E+00
 bond charge predicted
       N       E                     dE             d eps       ncg     rms          rms(c)
DAV:   1    -0.186033689641E+04    0.68443E-03   -0.49632E-02  1696   0.279E-01    0.954E-02
RMM:   2    -0.186033699031E+04   -0.93901E-04   -0.13744E-03  1536   0.414E-02    0.318E-02
RMM:   3    -0.186033696709E+04    0.23226E-04   -0.61615E-05  1530   0.743E-03    0.237E-02
RMM:   4    -0.186033696254E+04    0.45506E-05   -0.21548E-05  1510   0.345E-03    0.179E-02
RMM:   5    -0.186033695617E+04    0.63673E-05   -0.18179E-05  1521   0.343E-03    0.435E-03
RMM:   6    -0.186033695545E+04    0.71846E-06   -0.13447E-06  1376   0.100E-03    0.215E-03
RMM:   7    -0.186033695507E+04    0.37691E-06   -0.53051E-07  1256   0.597E-04    0.111E-03
RMM:   8    -0.186033695501E+04    0.68467E-07   -0.15126E-07   907   0.357E-04
  57 F= -.18843955E+04 E0= -.18843954E+04  d E =0.364437E-03
quench:  g(F)=  0.000E+00 g(S)=  0.000E+00 dE (1.order)= 0.000E+00
 bond charge predicted
       N       E                     dE             d eps       ncg     rms          rms(c)
DAV:   1    -0.186033752270E+04   -0.56762E-03   -0.49620E-02  1696   0.279E-01    0.954E-02
RMM:   2    -0.186033761584E+04   -0.93140E-04   -0.13738E-03  1536   0.414E-02    0.318E-02
RMM:   3    -0.186033759251E+04    0.23327E-04   -0.61541E-05  1530   0.743E-03    0.235E-02
RMM:   4    -0.186033758821E+04    0.42953E-05   -0.21628E-05  1510   0.346E-03    0.179E-02
RMM:   5    -0.186033758185E+04    0.63678E-05   -0.18022E-05  1520   0.341E-03    0.437E-03
RMM:   6    -0.186033758120E+04    0.64455E-06   -0.13446E-06  1376   0.100E-03    0.215E-03
RMM:   7    -0.186033758085E+04    0.35171E-06   -0.52575E-07  1252   0.595E-04    0.110E-03
RMM:   8    -0.186033758076E+04    0.89625E-07   -0.15229E-07   908   0.358E-04
  58 F= -.18843959E+04 E0= -.18843958E+04  d E =-.364445E-03
quench:  g(F)=  0.000E+00 g(S)=  0.000E+00 dE (1.order)= 0.000E+00
 bond charge predicted
       N       E                     dE             d eps       ncg     rms          rms(c)
DAV:   1    -0.186033689498E+04    0.68587E-03   -0.49634E-02  1696   0.279E-01    0.954E-02
RMM:   2    -0.186033698887E+04   -0.93888E-04   -0.13747E-03  1536   0.414E-02    0.318E-02
RMM:   3    -0.186033696563E+04    0.23248E-04   -0.61629E-05  1530   0.743E-03    0.237E-02
RMM:   4    -0.186033696108E+04    0.45447E-05   -0.21570E-05  1510   0.345E-03    0.180E-02
RMM:   5    -0.186033695471E+04    0.63713E-05   -0.18181E-05  1521   0.343E-03    0.436E-03
RMM:   6    -0.186033695399E+04    0.71510E-06   -0.13454E-06  1376   0.100E-03    0.216E-03
RMM:   7    -0.186033695362E+04    0.37646E-06   -0.53060E-07  1259   0.598E-04    0.111E-03
RMM:   8    -0.186033695355E+04    0.71566E-07   -0.15146E-07   909   0.358E-04
  59 F= -.18843955E+04 E0= -.18843954E+04  d E =0.364505E-03
quench:  g(F)=  0.000E+00 g(S)=  0.000E+00 dE (1.order)= 0.000E+00
 bond charge predicted
       N       E                     dE             d eps       ncg     rms          rms(c)
DAV:   1    -0.186033655533E+04    0.39828E-03   -0.13606E-01  1664   0.439E-01    0.108E-01
RMM:   2    -0.186033680503E+04   -0.24970E-03   -0.31262E-03  1536   0.612E-02    0.584E-02
RMM:   3    -0.186033678356E+04    0.21470E-04   -0.19547E-04  1540   0.110E-02    0.581E-02
RMM:   4    -0.186033673539E+04    0.48174E-04   -0.44906E-05  1524   0.482E-03    0.238E-02
RMM:   5    -0.186033672861E+04    0.67733E-05   -0.40492E-05  1532   0.545E-03    0.564E-03
RMM:   6    -0.186033672784E+04    0.77268E-06   -0.23341E-06  1456   0.122E-03    0.280E-03
RMM:   7    -0.186033672752E+04    0.31486E-06   -0.74829E-07  1306   0.729E-04    0.143E-03
RMM:   8    -0.186033672749E+04    0.32189E-07   -0.21696E-07   955   0.415E-04
  60 F= -.18843962E+04 E0= -.18843961E+04  d E =-.662325E-03
quench:  g(F)=  0.000E+00 g(S)=  0.000E+00 dE (1.order)= 0.000E+00
 bond charge predicted
       N       E                     dE             d eps       ncg     rms          rms(c)
DAV:   1    -0.186033628221E+04    0.44532E-03   -0.13933E-01  1632   0.426E-01    0.747E-02
RMM:   2    -0.186033652165E+04   -0.23944E-03   -0.26443E-03  1536   0.545E-02    0.405E-02
RMM:   3    -0.186033650331E+04    0.18339E-04   -0.60877E-05  1539   0.831E-03    0.256E-02
RMM:   4    -0.186033649950E+04    0.38078E-05   -0.35971E-05  1531   0.550E-03    0.126E-02
RMM:   5    -0.186033649854E+04    0.95823E-06   -0.58777E-06  1430   0.170E-03    0.722E-03
RMM:   6    -0.186033649788E+04    0.65862E-06   -0.80991E-07  1167   0.718E-04    0.270E-03
RMM:   7    -0.186033649792E+04   -0.42564E-07   -0.43373E-07  1110   0.608E-04
  61 F= -.18843965E+04 E0= -.18843964E+04  d E =-.271438E-03
quench:  g(F)=  0.000E+00 g(S)=  0.000E+00 dE (1.order)= 0.000E+00
 bond charge predicted
       N       E                     dE             d eps       ncg     rms          rms(c)
DAV:   1    -0.186033727172E+04   -0.77384E-03   -0.39812E-02  1536   0.165E-01    0.617E-02
RMM:   2    -0.186033732501E+04   -0.53293E-04   -0.89161E-04  1536   0.215E-02    0.530E-02
RMM:   3    -0.186033729032E+04    0.34693E-04   -0.11988E-04  1503   0.555E-03    0.362E-02
RMM:   4    -0.186033727775E+04    0.12567E-04   -0.15026E-05  1424   0.237E-03    0.190E-02
RMM:   5    -0.186033727578E+04    0.19722E-05   -0.11680E-05  1435   0.203E-03    0.560E-03
RMM:   6    -0.186033727573E+04    0.46915E-07   -0.10005E-06  1064   0.587E-04    0.189E-03
RMM:   7    -0.186033727584E+04   -0.10965E-06   -0.19394E-07   906   0.318E-04    0.745E-04
RMM:   8    -0.186033727596E+04   -0.11455E-06   -0.36401E-08   717   0.163E-04    0.297E-04
RMM:   9    -0.186033727611E+04   -0.15230E-06   -0.19991E-08   658   0.125E-04    0.189E-04
RMM:  10    -0.186033727630E+04   -0.19369E-06   -0.21623E-08   738   0.121E-04    0.116E-04
RMM:  11    -0.186033727648E+04   -0.17550E-06   -0.13259E-08   533   0.953E-05    0.610E-05
RMM:  12    -0.186033727663E+04   -0.14924E-06   -0.14554E-08   582   0.978E-05    0.380E-05
RMM:  13    -0.186033727672E+04   -0.90338E-07   -0.60419E-09   432   0.815E-05
  62 F= -.18843966E+04 E0= -.18843965E+04  d E =-.160226E-03
quench:  g(F)=  0.000E+00 g(S)=  0.000E+00 dE (1.order)= 0.000E+00
 bond charge predicted
       N       E                     dE             d eps       ncg     rms          rms(c)
DAV:   1    -0.186033660681E+04    0.66982E-03   -0.49639E-02  1664   0.279E-01    0.955E-02
RMM:   2    -0.186033669968E+04   -0.92872E-04   -0.13769E-03  1536   0.415E-02    0.319E-02
RMM:   3    -0.186033667555E+04    0.24130E-04   -0.61838E-05  1530   0.744E-03    0.237E-02
RMM:   4    -0.186033667061E+04    0.49371E-05   -0.21739E-05  1511   0.346E-03    0.180E-02
RMM:   5    -0.186033666364E+04    0.69727E-05   -0.18339E-05  1521   0.344E-03    0.439E-03
RMM:   6    -0.186033666282E+04    0.82345E-06   -0.14084E-06  1383   0.102E-03    0.219E-03
RMM:   7    -0.186033666249E+04    0.33106E-06   -0.57373E-07  1280   0.615E-04    0.114E-03
RMM:   8    -0.186033666255E+04   -0.68132E-07   -0.17732E-07   928   0.379E-04
  63 F= -.18843962E+04 E0= -.18843961E+04  d E =0.409210E-03
quench:  g(F)=  0.000E+00 g(S)=  0.000E+00 dE (1.order)= 0.000E+00
 bond charge predicted
       N       E                     dE             d eps       ncg     rms          rms(c)
DAV:   1    -0.186033721867E+04   -0.55618E-03   -0.47745E-02  1696   0.274E-01    0.937E-02
RMM:   2    -0.186033730840E+04   -0.89726E-04   -0.13218E-03  1536   0.406E-02    0.313E-02
RMM:   3    -0.186033728630E+04    0.22099E-04   -0.59673E-05  1530   0.730E-03    0.234E-02
RMM:   4    -0.186033728207E+04    0.42270E-05   -0.20574E-05  1510   0.337E-03    0.175E-02
RMM:   5    -0.186033727619E+04    0.58757E-05   -0.17584E-05  1521   0.337E-03    0.429E-03
RMM:   6    -0.186033727564E+04    0.55578E-06   -0.12899E-06  1372   0.982E-04    0.211E-03
RMM:   7    -0.186033727534E+04    0.29958E-06   -0.50369E-07  1240   0.584E-04    0.108E-03
RMM:   8    -0.186033727526E+04    0.75961E-07   -0.14429E-07   907   0.349E-04
  64 F= -.18843966E+04 E0= -.18843965E+04  d E =-.408313E-03
quench:  g(F)=  0.000E+00 g(S)=  0.000E+00 dE (1.order)= 0.000E+00
 bond charge predicted
       N       E                     dE             d eps       ncg     rms          rms(c)
DAV:   1    -0.186033658639E+04    0.68895E-03   -0.49311E-02  1712   0.278E-01    0.952E-02
RMM:   2    -0.186033667937E+04   -0.92972E-04   -0.13651E-03  1536   0.413E-02    0.319E-02
RMM:   3    -0.186033665658E+04    0.22785E-04   -0.62222E-05  1530   0.743E-03    0.242E-02
RMM:   4    -0.186033665143E+04    0.51498E-05   -0.20887E-05  1510   0.338E-03    0.177E-02
RMM:   5    -0.186033664521E+04    0.62188E-05   -0.18609E-05  1520   0.348E-03    0.435E-03
RMM:   6    -0.186033664447E+04    0.74321E-06   -0.13338E-06  1375   0.995E-04    0.215E-03
RMM:   7    -0.186033664408E+04    0.38400E-06   -0.52754E-07  1250   0.597E-04    0.110E-03
RMM:   8    -0.186033664401E+04    0.71537E-07   -0.15084E-07   908   0.356E-04
  65 F= -.18843962E+04 E0= -.18843961E+04  d E =0.419856E-03
quench:  g(F)=  0.000E+00 g(S)=  0.000E+00 dE (1.order)= 0.000E+00
 bond charge predicted
       N       E                     dE             d eps       ncg     rms          rms(c)
DAV:   1    -0.186033721770E+04   -0.57362E-03   -0.49340E-02  1696   0.278E-01    0.953E-02
RMM:   2    -0.186033731007E+04   -0.92370E-04   -0.13658E-03  1536   0.413E-02    0.319E-02
RMM:   3    -0.186033728719E+04    0.22883E-04   -0.62157E-05  1530   0.743E-03    0.241E-02
RMM:   4    -0.186033728237E+04    0.48175E-05   -0.20988E-05  1511   0.339E-03    0.176E-02
RMM:   5    -0.186033727621E+04    0.61584E-05   -0.18453E-05  1521   0.346E-03    0.437E-03
RMM:   6    -0.186033727557E+04    0.64263E-06   -0.13336E-06  1375   0.996E-04    0.215E-03
RMM:   7    -0.186033727523E+04    0.34180E-06   -0.52475E-07  1254   0.595E-04    0.110E-03
RMM:   8    -0.186033727514E+04    0.86147E-07   -0.14996E-07   908   0.355E-04
  66 F= -.18843966E+04 E0= -.18843965E+04  d E =-.419727E-03
quench:  g(F)=  0.000E+00 g(S)=  0.000E+00 dE (1.order)= 0.000E+00
 bond charge predicted
       N       E                     dE             d eps       ncg     rms          rms(c)
DAV:   1    -0.186033658594E+04    0.68929E-03   -0.49328E-02  1696   0.278E-01    0.953E-02
RMM:   2    -0.186033667898E+04   -0.93036E-04   -0.13657E-03  1536   0.413E-02    0.319E-02
RMM:   3    -0.186033665620E+04    0.22779E-04   -0.62206E-05  1530   0.743E-03    0.242E-02
RMM:   4    -0.186033665112E+04    0.50843E-05   -0.20922E-05  1511   0.338E-03    0.177E-02
RMM:   5    -0.186033664494E+04    0.61745E-05   -0.18597E-05  1522   0.348E-03    0.435E-03
RMM:   6    -0.186033664422E+04    0.71776E-06   -0.13340E-06  1376   0.996E-04    0.215E-03
RMM:   7    -0.186033664385E+04    0.36959E-06   -0.52765E-07  1255   0.596E-04    0.110E-03
RMM:   8    -0.186033664378E+04    0.70329E-07   -0.15005E-07   908   0.355E-04
  67 F= -.18843962E+04 E0= -.18843961E+04  d E =0.419766E-03
quench:  g(F)=  0.000E+00 g(S)=  0.000E+00 dE (1.order)= 0.000E+00
 bond charge predicted
       N       E                     dE             d eps       ncg     rms          rms(c)
DAV:   1    -0.186033721778E+04   -0.57392E-03   -0.49323E-02  1696   0.278E-01    0.953E-02
RMM:   2    -0.186033731010E+04   -0.92323E-04   -0.13653E-03  1536   0.413E-02    0.319E-02
RMM:   3    -0.186033728719E+04    0.22908E-04   -0.62115E-05  1530   0.743E-03    0.241E-02
RMM:   4    -0.186033728239E+04    0.48029E-05   -0.21003E-05  1510   0.339E-03    0.176E-02
RMM:   5    -0.186033727621E+04    0.61764E-05   -0.18439E-05  1522   0.346E-03    0.438E-03
RMM:   6    -0.186033727556E+04    0.65014E-06   -0.13341E-06  1375   0.996E-04    0.215E-03
RMM:   7    -0.186033727522E+04    0.34613E-06   -0.52353E-07  1254   0.595E-04    0.110E-03
RMM:   8    -0.186033727513E+04    0.85754E-07   -0.15043E-07   910   0.355E-04
  68 F= -.18843966E+04 E0= -.18843965E+04  d E =-.419756E-03
quench:  g(F)=  0.000E+00 g(S)=  0.000E+00 dE (1.order)= 0.000E+00
 bond charge predicted
       N       E                     dE             d eps       ncg     rms          rms(c)
DAV:   1    -0.186033658530E+04    0.68992E-03   -0.49339E-02  1696   0.278E-01    0.953E-02
RMM:   2    -0.186033667834E+04   -0.93044E-04   -0.13660E-03  1536   0.413E-02    0.319E-02
RMM:   3    -0.186033665554E+04    0.22800E-04   -0.62213E-05  1530   0.743E-03    0.242E-02
RMM:   4    -0.186033665048E+04    0.50689E-05   -0.20943E-05  1510   0.338E-03    0.177E-02
RMM:   5    -0.186033664430E+04    0.61773E-05   -0.18597E-05  1521   0.348E-03    0.436E-03
RMM:   6    -0.186033664359E+04    0.71242E-06   -0.13348E-06  1376   0.996E-04    0.215E-03
RMM:   7    -0.186033664322E+04    0.36857E-06   -0.52772E-07  1256   0.596E-04    0.110E-03
RMM:   8    -0.186033664315E+04    0.70329E-07   -0.14992E-07   909   0.355E-04
  69 F= -.18843962E+04 E0= -.18843961E+04  d E =0.420072E-03
quench:  g(F)=  0.000E+00 g(S)=  0.000E+00 dE (1.order)= 0.000E+00
 bond charge predicted
       N       E                     dE             d eps       ncg     rms          rms(c)
DAV:   1    -0.186033708813E+04   -0.44491E-03   -0.13823E-01  1664   0.441E-01    0.109E-01
RMM:   2    -0.186033734170E+04   -0.25357E-03   -0.31884E-03  1536   0.616E-02    0.562E-02
RMM:   3    -0.186033732203E+04    0.19668E-04   -0.18355E-04  1540   0.110E-02    0.534E-02
RMM:   4    -0.186033727999E+04    0.42043E-04   -0.46530E-05  1523   0.481E-03    0.237E-02
RMM:   5    -0.186033727236E+04    0.76303E-05   -0.39135E-05  1531   0.539E-03    0.519E-03
RMM:   6    -0.186033727159E+04    0.76796E-06   -0.22724E-06  1460   0.122E-03    0.290E-03
RMM:   7    -0.186033727127E+04    0.31706E-06   -0.75169E-07  1312   0.726E-04    0.143E-03
RMM:   8    -0.186033727128E+04   -0.35652E-08   -0.20217E-07   945   0.405E-04
  70 F= -.18843969E+04 E0= -.18843968E+04  d E =-.728315E-03
quench:  g(F)=  0.000E+00 g(S)=  0.000E+00 dE (1.order)= 0.000E+00
 bond charge predicted
       N       E                     dE             d eps       ncg     rms          rms(c)
DAV:   1    -0.186033784755E+04   -0.57627E-03   -0.52343E-01  1536   0.814E-01    0.137E-01
RMM:   2    -0.186033875518E+04   -0.90764E-03   -0.99392E-03  1536   0.104E-01    0.711E-02
RMM:   3    -0.186033869597E+04    0.59214E-04   -0.23555E-04  1543   0.159E-02    0.552E-02
RMM:   4    -0.186033868760E+04    0.83715E-05   -0.73144E-05  1531   0.652E-03    0.438E-02
RMM:   5    -0.186033866372E+04    0.23875E-04   -0.81739E-05  1535   0.785E-03    0.100E-02
RMM:   6    -0.186033866256E+04    0.11662E-05   -0.32571E-06  1478   0.170E-03    0.400E-03
RMM:   7    -0.186033866270E+04   -0.14054E-06   -0.11535E-06  1344   0.924E-04    0.163E-03
RMM:   8    -0.186033866319E+04   -0.49284E-06   -0.29376E-07  1016   0.526E-04    0.640E-04
RMM:   9    -0.186033866365E+04   -0.45943E-06   -0.10638E-07   899   0.274E-04    0.427E-04
RMM:  10    -0.186033866411E+04   -0.46460E-06   -0.60880E-08   832   0.192E-04    0.266E-04
RMM:  11    -0.186033866482E+04   -0.70715E-06   -0.94895E-08   880   0.222E-04    0.144E-04
RMM:  12    -0.186033866510E+04   -0.27608E-06   -0.32043E-08   713   0.133E-04    0.887E-05
RMM:  13    -0.186033866541E+04   -0.31386E-06   -0.22574E-08   665   0.118E-04    0.589E-05
RMM:  14    -0.186033866556E+04   -0.15006E-06   -0.89539E-09   526   0.903E-05    0.333E-05
RMM:  15    -0.186033866570E+04   -0.14085E-06   -0.62641E-09   482   0.855E-05    0.263E-05
RMM:  16    -0.186033866576E+04   -0.58237E-07   -0.19507E-09   365   0.745E-05
  71 F= -.18843974E+04 E0= -.18843973E+04  d E =-.449982E-03
quench:  g(F)=  0.000E+00 g(S)=  0.000E+00 dE (1.order)= 0.000E+00
 bond charge predicted
       N       E                     dE             d eps       ncg     rms          rms(c)
DAV:   1    -0.186033939985E+04   -0.73415E-03   -0.39850E-02  1536   0.165E-01    0.613E-02
RMM:   2    -0.186033945254E+04   -0.52691E-04   -0.89283E-04  1536   0.216E-02    0.529E-02
RMM:   3    -0.186033941816E+04    0.34382E-04   -0.11959E-04  1504   0.555E-03    0.361E-02
RMM:   4    -0.186033940550E+04    0.12656E-04   -0.14936E-05  1423   0.236E-03    0.191E-02
RMM:   5    -0.186033940320E+04    0.23019E-05   -0.11659E-05  1436   0.203E-03    0.555E-03
RMM:   6    -0.186033940305E+04    0.15396E-06   -0.10035E-06  1062   0.580E-04    0.188E-03
RMM:   7    -0.186033940309E+04   -0.43452E-07   -0.19703E-07   905   0.315E-04
  72 F= -.18843975E+04 E0= -.18843974E+04  d E =-.839109E-04
quench:  g(F)=  0.000E+00 g(S)=  0.000E+00 dE (1.order)= 0.000E+00
 bond charge predicted
       N       E                     dE             d eps       ncg     rms          rms(c)
DAV:   1    -0.186033873303E+04    0.67001E-03   -0.49341E-02  1632   0.278E-01    0.953E-02
RMM:   2    -0.186033882553E+04   -0.92495E-04   -0.13676E-03  1536   0.413E-02    0.319E-02
RMM:   3    -0.186033880170E+04    0.23825E-04   -0.62098E-05  1530   0.743E-03    0.240E-02
RMM:   4    -0.186033879679E+04    0.49098E-05   -0.21264E-05  1510   0.341E-03    0.178E-02
RMM:   5    -0.186033878992E+04    0.68743E-05   -0.18534E-05  1521   0.347E-03    0.441E-03
RMM:   6    -0.186033878913E+04    0.78393E-06   -0.13902E-06  1381   0.101E-03    0.219E-03
RMM:   7    -0.186033878883E+04    0.30646E-06   -0.57130E-07  1278   0.614E-04    0.114E-03
RMM:   8    -0.186033878889E+04   -0.65309E-07   -0.17545E-07   927   0.377E-04
  73 F= -.18843971E+04 E0= -.18843970E+04  d E =0.351545E-03
quench:  g(F)=  0.000E+00 g(S)=  0.000E+00 dE (1.order)= 0.000E+00
 bond charge predicted
       N       E                     dE             d eps       ncg     rms          rms(c)
DAV:   1    -0.186033934802E+04   -0.55919E-03   -0.45555E-02  1680   0.267E-01    0.916E-02
RMM:   2    -0.186033943320E+04   -0.85184E-04   -0.12601E-03  1536   0.396E-02    0.308E-02
RMM:   3    -0.186033941261E+04    0.20585E-04   -0.58203E-05  1530   0.715E-03    0.237E-02
RMM:   4    -0.186033940780E+04    0.48170E-05   -0.19009E-05  1509   0.321E-03    0.168E-02
RMM:   5    -0.186033940248E+04    0.53213E-05   -0.17424E-05  1522   0.338E-03    0.421E-03
RMM:   6    -0.186033940194E+04    0.53179E-06   -0.12250E-06  1367   0.953E-04    0.206E-03
RMM:   7    -0.186033940168E+04    0.26128E-06   -0.48048E-07  1225   0.572E-04    0.105E-03
RMM:   8    -0.186033940162E+04    0.58382E-07   -0.13630E-07   903   0.338E-04
  74 F= -.18843975E+04 E0= -.18843974E+04  d E =-.353383E-03
quench:  g(F)=  0.000E+00 g(S)=  0.000E+00 dE (1.order)= 0.000E+00
 bond charge predicted
       N       E                     dE             d eps       ncg     rms          rms(c)
DAV:   1    -0.186033869584E+04    0.70584E-03   -0.48636E-02  1712   0.276E-01    0.946E-02
RMM:   2    -0.186033878700E+04   -0.91160E-04   -0.13444E-03  1536   0.409E-02    0.320E-02
RMM:   3    -0.186033876527E+04    0.21738E-04   -0.63315E-05  1530   0.741E-03    0.253E-02
RMM:   4    -0.186033875899E+04    0.62718E-05   -0.19810E-05  1508   0.325E-03    0.171E-02
[...]
RMM:  15    -0.186034502784E+04   -0.16979E-06   -0.63598E-09   455   0.844E-05    0.243E-05
RMM:  16    -0.186034502794E+04   -0.10413E-06   -0.42079E-09   435   0.819E-05    0.165E-05
RMM:  17    -0.186034502799E+04   -0.52620E-07   -0.27606E-09   375   0.772E-05
 120 F= -.18844021E+04 E0= -.18844020E+04  d E =-.966869E-03
quench:  g(F)=  0.000E+00 g(S)=  0.000E+00 dE (1.order)= 0.000E+00
 bond charge predicted
       N       E                     dE             d eps       ncg     rms          rms(c)
DAV:   1    -0.186034490756E+04    0.12039E-03   -0.34824E-04  1680   0.235E-02    0.536E-03
RMM:   2    -0.186034490821E+04   -0.65457E-06   -0.78236E-06  1531   0.326E-03    0.306E-03
RMM:   3    -0.186034490812E+04    0.87210E-07   -0.21040E-07   953   0.524E-04
 121 F= -.18844021E+04 E0= -.18844020E+04  d E =-.351253E-05
quench:  g(F)=  0.000E+00 g(S)=  0.000E+00 dE (1.order)= 0.000E+00
 bond charge predicted
       N       E                     dE             d eps       ncg     rms          rms(c)
DAV:   1    -0.186034558166E+04   -0.67345E-03   -0.39934E-02  1536   0.165E-01    0.618E-02
RMM:   2    -0.186034563671E+04   -0.55048E-04   -0.89837E-04  1536   0.217E-02    0.548E-02
RMM:   3    -0.186034559778E+04    0.38932E-04   -0.12043E-04  1506   0.561E-03    0.356E-02
RMM:   4    -0.186034558543E+04    0.12348E-04   -0.15114E-05  1430   0.241E-03    0.188E-02
RMM:   5    -0.186034558312E+04    0.23049E-05   -0.11330E-05  1434   0.200E-03    0.551E-03
RMM:   6    -0.186034558296E+04    0.16099E-06   -0.99322E-07  1058   0.576E-04    0.188E-03
RMM:   7    -0.186034558301E+04   -0.44078E-07   -0.19407E-07   903   0.313E-04
 122 F= -.18844021E+04 E0= -.18844020E+04  d E =-.247583E-04
quench:  g(F)=  0.000E+00 g(S)=  0.000E+00 dE (1.order)= 0.000E+00
 bond charge predicted
       N       E                     dE             d eps       ncg     rms          rms(c)
DAV:   1    -0.186034490594E+04    0.67703E-03   -0.48949E-02  1632   0.277E-01    0.949E-02
RMM:   2    -0.186034499736E+04   -0.91426E-04   -0.13556E-03  1536   0.411E-02    0.319E-02
RMM:   3    -0.186034497410E+04    0.23263E-04   -0.62653E-05  1530   0.742E-03    0.246E-02
RMM:   4    -0.186034496856E+04    0.55365E-05   -0.20538E-05  1510   0.333E-03    0.175E-02
RMM:   5    -0.186034496192E+04    0.66420E-05   -0.18924E-05  1523   0.352E-03    0.440E-03
RMM:   6    -0.186034496113E+04    0.79088E-06   -0.13797E-06  1382   0.100E-03    0.218E-03
RMM:   7    -0.186034496084E+04    0.29056E-06   -0.56449E-07  1274   0.611E-04    0.113E-03
RMM:   8    -0.186034496091E+04   -0.73866E-07   -0.17471E-07   930   0.374E-04
 123 F= -.18844018E+04 E0= -.18844017E+04  d E =0.338180E-03
quench:  g(F)=  0.000E+00 g(S)=  0.000E+00 dE (1.order)= 0.000E+00
 bond charge predicted
       N       E                     dE             d eps       ncg     rms          rms(c)
DAV:   1    -0.186034552481E+04   -0.56398E-03   -0.50215E-02  1664   0.281E-01    0.963E-02
RMM:   2    -0.186034561874E+04   -0.93920E-04   -0.13899E-03  1536   0.416E-02    0.323E-02
RMM:   3    -0.186034559581E+04    0.22925E-04   -0.63842E-05  1530   0.751E-03    0.246E-02
RMM:   4    -0.186034559073E+04    0.50827E-05   -0.21124E-05  1510   0.340E-03    0.177E-02
RMM:   5    -0.186034558475E+04    0.59804E-05   -0.19021E-05  1522   0.353E-03    0.442E-03
RMM:   6    -0.186034558415E+04    0.60166E-06   -0.13568E-06  1376   0.100E-03    0.216E-03
RMM:   7    -0.186034558385E+04    0.29680E-06   -0.53409E-07  1264   0.599E-04    0.110E-03
RMM:   8    -0.186034558378E+04    0.66211E-07   -0.15026E-07   908   0.355E-04
 124 F= -.18844021E+04 E0= -.18844020E+04  d E =-.337697E-03
quench:  g(F)=  0.000E+00 g(S)=  0.000E+00 dE (1.order)= 0.000E+00
 bond charge predicted
       N       E                     dE             d eps       ncg     rms          rms(c)
DAV:   1    -0.186034491610E+04    0.66775E-03   -0.49189E-02  1712   0.278E-01    0.952E-02
RMM:   2    -0.186034500874E+04   -0.92633E-04   -0.13616E-03  1536   0.412E-02    0.319E-02
RMM:   3    -0.186034498604E+04    0.22693E-04   -0.62265E-05  1530   0.742E-03    0.243E-02
RMM:   4    -0.186034498090E+04    0.51473E-05   -0.20792E-05  1510   0.337E-03    0.176E-02
RMM:   5    -0.186034497475E+04    0.61485E-05   -0.18605E-05  1521   0.349E-03    0.436E-03
RMM:   6    -0.186034497399E+04    0.75270E-06   -0.13293E-06  1374   0.994E-04    0.215E-03
RMM:   7    -0.186034497361E+04    0.38280E-06   -0.52633E-07  1259   0.595E-04    0.110E-03
RMM:   8    -0.186034497354E+04    0.73502E-07   -0.14855E-07   908   0.353E-04
 125 F= -.18844018E+04 E0= -.18844017E+04  d E =0.330314E-03
quench:  g(F)=  0.000E+00 g(S)=  0.000E+00 dE (1.order)= 0.000E+00
 bond charge predicted
       N       E                     dE             d eps       ncg     rms          rms(c)
DAV:   1    -0.186034552627E+04   -0.55266E-03   -0.49663E-02  1696   0.279E-01    0.957E-02
RMM:   2    -0.186034561913E+04   -0.92860E-04   -0.13753E-03  1536   0.414E-02    0.320E-02
RMM:   3    -0.186034559605E+04    0.23082E-04   -0.62670E-05  1530   0.746E-03    0.242E-02
RMM:   4    -0.186034559123E+04    0.48265E-05   -0.21141E-05  1510   0.341E-03    0.177E-02
RMM:   5    -0.186034558504E+04    0.61869E-05   -0.18562E-05  1521   0.348E-03    0.440E-03
RMM:   6    -0.186034558437E+04    0.66655E-06   -0.13442E-06  1377   0.100E-03    0.215E-03
RMM:   7    -0.186034558403E+04    0.34552E-06   -0.52782E-07  1260   0.596E-04    0.110E-03
RMM:   8    -0.186034558394E+04    0.84518E-07   -0.15038E-07   911   0.356E-04
 126 F= -.18844021E+04 E0= -.18844020E+04  d E =-.330014E-03
quench:  g(F)=  0.000E+00 g(S)=  0.000E+00 dE (1.order)= 0.000E+00
 bond charge predicted
       N       E                     dE             d eps       ncg     rms          rms(c)
DAV:   1    -0.186034492030E+04    0.66373E-03   -0.49276E-02  1696   0.278E-01    0.953E-02
RMM:   2    -0.186034501314E+04   -0.92842E-04   -0.13643E-03  1536   0.413E-02    0.319E-02
RMM:   3    -0.186034499033E+04    0.22809E-04   -0.62132E-05  1530   0.743E-03    0.241E-02
RMM:   4    -0.186034498533E+04    0.49950E-05   -0.20966E-05  1510   0.339E-03    0.177E-02
RMM:   5    -0.186034497917E+04    0.61668E-05   -0.18503E-05  1520   0.347E-03    0.436E-03
RMM:   6    -0.186034497843E+04    0.73350E-06   -0.13325E-06  1374   0.997E-04    0.215E-03
RMM:   7    -0.186034497807E+04    0.36936E-06   -0.52763E-07  1259   0.596E-04    0.110E-03
RMM:   8    -0.186034497799E+04    0.71261E-07   -0.14912E-07   905   0.354E-04
 127 F= -.18844018E+04 E0= -.18844017E+04  d E =0.327528E-03
quench:  g(F)=  0.000E+00 g(S)=  0.000E+00 dE (1.order)= 0.000E+00
 bond charge predicted
       N       E                     dE             d eps       ncg     rms          rms(c)
DAV:   1    -0.186034552664E+04   -0.54858E-03   -0.49343E-02  1696   0.278E-01    0.954E-02
RMM:   2    -0.186034561895E+04   -0.92306E-04   -0.13665E-03  1536   0.413E-02    0.319E-02
RMM:   3    -0.186034559595E+04    0.22994E-04   -0.62125E-05  1530   0.743E-03    0.240E-02
RMM:   4    -0.186034559125E+04    0.47042E-05   -0.21087E-05  1510   0.341E-03    0.177E-02
RMM:   5    -0.186034558507E+04    0.61799E-05   -0.18363E-05  1521   0.345E-03    0.439E-03
RMM:   6    -0.186034558440E+04    0.66514E-06   -0.13363E-06  1378   0.998E-04    0.215E-03
RMM:   7    -0.186034558406E+04    0.34444E-06   -0.52334E-07  1256   0.594E-04    0.110E-03
RMM:   8    -0.186034558397E+04    0.88738E-07   -0.14942E-07   910   0.355E-04
 128 F= -.18844021E+04 E0= -.18844020E+04  d E =-.327492E-03
quench:  g(F)=  0.000E+00 g(S)=  0.000E+00 dE (1.order)= 0.000E+00
 bond charge predicted
       N       E                     dE             d eps       ncg     rms          rms(c)
DAV:   1    -0.186034492092E+04    0.66314E-03   -0.49288E-02  1696   0.278E-01    0.953E-02
RMM:   2    -0.186034501379E+04   -0.92864E-04   -0.13646E-03  1536   0.413E-02    0.319E-02
RMM:   3    -0.186034499096E+04    0.22830E-04   -0.62111E-05  1530   0.743E-03    0.241E-02
RMM:   4    -0.186034498598E+04    0.49767E-05   -0.20991E-05  1510   0.339E-03    0.177E-02
RMM:   5    -0.186034497980E+04    0.61754E-05   -0.18489E-05  1520   0.347E-03    0.436E-03
RMM:   6    -0.186034497907E+04    0.72978E-06   -0.13335E-06  1374   0.997E-04    0.215E-03
RMM:   7    -0.186034497870E+04    0.37000E-06   -0.52868E-07  1259   0.596E-04    0.110E-03
RMM:   8    -0.186034497863E+04    0.71130E-07   -0.14913E-07   908   0.355E-04
 129 F= -.18844018E+04 E0= -.18844017E+04  d E =0.327136E-03
quench:  g(F)=  0.000E+00 g(S)=  0.000E+00 dE (1.order)= 0.000E+00
 bond charge predicted
       N       E                     dE             d eps       ncg     rms          rms(c)
DAV:   1    -0.186034518744E+04   -0.20874E-03   -0.14502E-01  1616   0.483E-01    0.112E-01
RMM:   2    -0.186034545106E+04   -0.26362E-03   -0.34291E-03  1536   0.678E-02    0.515E-02
RMM:   3    -0.186034542028E+04    0.30786E-04   -0.16192E-04  1540   0.114E-02    0.498E-02
RMM:   4    -0.186034539450E+04    0.25779E-04   -0.36152E-05  1530   0.436E-03    0.271E-02
RMM:   5    -0.186034538542E+04    0.90711E-05   -0.49939E-05  1535   0.624E-03    0.731E-03
RMM:   6    -0.186034538423E+04    0.11917E-05   -0.26815E-06  1463   0.136E-03    0.292E-03
RMM:   7    -0.186034538394E+04    0.29537E-06   -0.77297E-07  1317   0.734E-04    0.137E-03
RMM:   8    -0.186034538397E+04   -0.30224E-07   -0.30074E-07  1050   0.484E-04
 130 F= -.18844029E+04 E0= -.18844028E+04  d E =-.110805E-02
quench:  g(F)=  0.000E+00 g(S)=  0.000E+00 dE (1.order)= 0.000E+00
 bond charge predicted
       N       E                     dE             d eps       ncg     rms          rms(c)
DAV:   1    -0.186034514194E+04    0.24200E-03   -0.18669E-01  1632   0.559E-01    0.984E-02
RMM:   2    -0.186034549707E+04   -0.35513E-03   -0.39719E-03  1536   0.745E-02    0.584E-02
RMM:   3    -0.186034546763E+04    0.29446E-04   -0.12710E-04  1542   0.111E-02    0.422E-02
RMM:   4    -0.186034545125E+04    0.16380E-04   -0.40786E-05  1531   0.510E-03    0.343E-02
RMM:   5    -0.186034544040E+04    0.10847E-04   -0.53924E-05  1536   0.691E-03    0.655E-03
RMM:   6    -0.186034544002E+04    0.38347E-06   -0.25563E-06  1485   0.155E-03    0.294E-03
RMM:   7    -0.186034544014E+04   -0.12835E-06   -0.47859E-07  1193   0.628E-04    0.162E-03
RMM:   8    -0.186034544038E+04   -0.23996E-06   -0.13071E-07   912   0.370E-04    0.638E-04
RMM:   9    -0.186034544066E+04   -0.27662E-06   -0.80339E-08   900   0.255E-04    0.328E-04
RMM:  10    -0.186034544103E+04   -0.36687E-06   -0.53474E-08   824   0.183E-04    0.201E-04
RMM:  11    -0.186034544147E+04   -0.44709E-06   -0.61651E-08   859   0.179E-04    0.142E-04
RMM:  12    -0.186034544170E+04   -0.22480E-06   -0.26077E-08   720   0.125E-04    0.816E-05
RMM:  13    -0.186034544190E+04   -0.19744E-06   -0.14336E-08   588   0.994E-05    0.604E-05
RMM:  14    -0.186034544201E+04   -0.11756E-06   -0.43832E-09   445   0.840E-05    0.241E-05
RMM:  15    -0.186034544208E+04   -0.69529E-07   -0.28831E-09   394   0.807E-05
 131 F= -.18844034E+04 E0= -.18844033E+04  d E =-.499241E-03
quench:  g(F)=  0.000E+00 g(S)=  0.000E+00 dE (1.order)= 0.000E+00
 bond charge predicted
       N       E                     dE             d eps       ncg     rms          rms(c)
DAV:   1    -0.186034619141E+04   -0.74940E-03   -0.39860E-02  1536   0.165E-01    0.614E-02
RMM:   2    -0.186034624406E+04   -0.52642E-04   -0.89465E-04  1536   0.216E-02    0.530E-02
RMM:   3    -0.186034620948E+04    0.34577E-04   -0.11998E-04  1506   0.557E-03    0.361E-02
RMM:   4    -0.186034619678E+04    0.12704E-04   -0.14954E-05  1425   0.237E-03    0.191E-02
RMM:   5    -0.186034619447E+04    0.23107E-05   -0.11613E-05  1439   0.203E-03    0.557E-03
RMM:   6    -0.186034619431E+04    0.15975E-06   -0.10062E-06  1061   0.582E-04    0.188E-03
RMM:   7    -0.186034619434E+04   -0.33586E-07   -0.19720E-07   906   0.315E-04
 132 F= -.18844035E+04 E0= -.18844034E+04  d E =-.120910E-03
quench:  g(F)=  0.000E+00 g(S)=  0.000E+00 dE (1.order)= 0.000E+00
 bond charge predicted
       N       E                     dE             d eps       ncg     rms          rms(c)
DAV:   1    -0.186034558004E+04    0.61427E-03   -0.49284E-02  1632   0.278E-01    0.953E-02
RMM:   2    -0.186034567233E+04   -0.92299E-04   -0.13660E-03  1536   0.413E-02    0.319E-02
RMM:   3    -0.186034564859E+04    0.23746E-04   -0.62211E-05  1530   0.743E-03    0.241E-02
RMM:   4    -0.186034564355E+04    0.50401E-05   -0.21108E-05  1510   0.340E-03    0.177E-02
RMM:   5    -0.186034563674E+04    0.68043E-05   -0.18610E-05  1521   0.348E-03    0.441E-03
RMM:   6    -0.186034563595E+04    0.79653E-06   -0.13891E-06  1383   0.101E-03    0.218E-03
RMM:   7    -0.186034563564E+04    0.30684E-06   -0.57013E-07  1278   0.613E-04    0.113E-03
RMM:   8    -0.186034563571E+04   -0.67652E-07   -0.17496E-07   926   0.376E-04
 133 F= -.18844032E+04 E0= -.18844031E+04  d E =0.316259E-03
quench:  g(F)=  0.000E+00 g(S)=  0.000E+00 dE (1.order)= 0.000E+00
 bond charge predicted
       N       E                     dE             d eps       ncg     rms          rms(c)
DAV:   1    -0.186034613753E+04   -0.50189E-03   -0.48387E-02  1680   0.276E-01    0.945E-02
RMM:   2    -0.186034622813E+04   -0.90606E-04   -0.13396E-03  1536   0.409E-02    0.316E-02
RMM:   3    -0.186034620595E+04    0.22181E-04   -0.61256E-05  1530   0.737E-03    0.240E-02
RMM:   4    -0.186034620121E+04    0.47437E-05   -0.20446E-05  1510   0.335E-03    0.174E-02
RMM:   5    -0.186034619542E+04    0.57871E-05   -0.18210E-05  1522   0.345E-03    0.434E-03
RMM:   6    -0.186034619484E+04    0.57822E-06   -0.13054E-06  1372   0.986E-04    0.212E-03
RMM:   7    -0.186034619456E+04    0.28570E-06   -0.51376E-07  1245   0.589E-04    0.108E-03
RMM:   8    -0.186034619449E+04    0.63970E-07   -0.14551E-07   908   0.349E-04
 134 F= -.18844035E+04 E0= -.18844034E+04  d E =-.317000E-03
quench:  g(F)=  0.000E+00 g(S)=  0.000E+00 dE (1.order)= 0.000E+00
 bond charge predicted
       N       E                     dE             d eps       ncg     rms          rms(c)
DAV:   1    -0.186034557094E+04    0.62362E-03   -0.49125E-02  1712   0.278E-01    0.952E-02
RMM:   2    -0.186034566338E+04   -0.92437E-04   -0.13597E-03  1536   0.412E-02    0.319E-02
RMM:   3    -0.186034564082E+04    0.22554E-04   -0.62496E-05  1530   0.743E-03    0.245E-02
RMM:   4    -0.186034563544E+04    0.53875E-05   -0.20572E-05  1510   0.335E-03    0.175E-02
RMM:   5    -0.186034562935E+04    0.60815E-05   -0.18769E-05  1522   0.351E-03    0.435E-03
RMM:   6    -0.186034562860E+04    0.75538E-06   -0.13267E-06  1377   0.992E-04    0.214E-03
RMM:   7    -0.186034562822E+04    0.37932E-06   -0.52557E-07  1252   0.595E-04    0.110E-03
RMM:   8    -0.186034562814E+04    0.75335E-07   -0.14883E-07   909   0.353E-04
 135 F= -.18844032E+04 E0= -.18844031E+04  d E =0.321084E-03
quench:  g(F)=  0.000E+00 g(S)=  0.000E+00 dE (1.order)= 0.000E+00
 bond charge predicted
       N       E                     dE             d eps       ncg     rms          rms(c)
DAV:   1    -0.186034613719E+04   -0.50897E-03   -0.49351E-02  1696   0.278E-01    0.954E-02
RMM:   2    -0.186034622941E+04   -0.92215E-04   -0.13663E-03  1536   0.413E-02    0.320E-02
RMM:   3    -0.186034620662E+04    0.22790E-04   -0.62640E-05  1530   0.744E-03    0.243E-02
RMM:   4    -0.186034620156E+04    0.50536E-05   -0.20764E-05  1510   0.337E-03    0.175E-02
RMM:   5    -0.186034619550E+04    0.60666E-05   -0.18666E-05  1522   0.349E-03    0.439E-03
RMM:   6    -0.186034619484E+04    0.65936E-06   -0.13344E-06  1379   0.995E-04    0.215E-03
RMM:   7    -0.186034619449E+04    0.34258E-06   -0.52371E-07  1256   0.594E-04    0.109E-03
RMM:   8    -0.186034619441E+04    0.82393E-07   -0.14950E-07   910   0.354E-04
 136 F= -.18844035E+04 E0= -.18844034E+04  d E =-.320854E-03
quench:  g(F)=  0.000E+00 g(S)=  0.000E+00 dE (1.order)= 0.000E+00
 bond charge predicted
       N       E                     dE             d eps       ncg     rms          rms(c)
DAV:   1    -0.186034557283E+04    0.62166E-03   -0.49167E-02  1696   0.278E-01    0.952E-02
RMM:   2    -0.186034566538E+04   -0.92543E-04   -0.13609E-03  1536   0.412E-02    0.319E-02
RMM:   3    -0.186034564279E+04    0.22589E-04   -0.62419E-05  1530   0.743E-03    0.244E-02
RMM:   4    -0.186034563749E+04    0.52965E-05   -0.20653E-05  1510   0.336E-03    0.176E-02
RMM:   5    -0.186034563143E+04    0.60622E-05   -0.18721E-05  1522   0.350E-03    0.435E-03
RMM:   6    -0.186034563070E+04    0.72892E-06   -0.13281E-06  1376   0.993E-04    0.214E-03
RMM:   7    -0.186034563033E+04    0.36803E-06   -0.52736E-07  1260   0.596E-04    0.110E-03
RMM:   8    -0.186034563026E+04    0.71741E-07   -0.14829E-07   909   0.353E-04
 137 F= -.18844032E+04 E0= -.18844031E+04  d E =0.319606E-03
quench:  g(F)=  0.000E+00 g(S)=  0.000E+00 dE (1.order)= 0.000E+00
 bond charge predicted
       N       E                     dE             d eps       ncg     rms          rms(c)
DAV:   1    -0.186034613738E+04   -0.50705E-03   -0.49193E-02  1696   0.278E-01    0.953E-02
RMM:   2    -0.186034622932E+04   -0.91936E-04   -0.13620E-03  1536   0.412E-02    0.319E-02
RMM:   3    -0.186034620657E+04    0.22752E-04   -0.62372E-05  1530   0.743E-03    0.243E-02
RMM:   4    -0.186034620157E+04    0.49972E-05   -0.20733E-05  1510   0.337E-03    0.175E-02
RMM:   5    -0.186034619550E+04    0.60710E-05   -0.18571E-05  1522   0.348E-03    0.438E-03
RMM:   6    -0.186034619484E+04    0.65824E-06   -0.13288E-06  1376   0.994E-04    0.214E-03
RMM:   7    -0.186034619449E+04    0.34687E-06   -0.52435E-07  1255   0.594E-04    0.109E-03
RMM:   8    -0.186034619441E+04    0.84678E-07   -0.14870E-07   906   0.353E-04
 138 F= -.18844035E+04 E0= -.18844034E+04  d E =-.319585E-03
quench:  g(F)=  0.000E+00 g(S)=  0.000E+00 dE (1.order)= 0.000E+00
 bond charge predicted
       N       E                     dE             d eps       ncg     rms          rms(c)
DAV:   1    -0.186034557306E+04    0.62143E-03   -0.49172E-02  1696   0.278E-01    0.952E-02
RMM:   2    -0.186034566562E+04   -0.92552E-04   -0.13611E-03  1536   0.412E-02    0.319E-02
RMM:   3    -0.186034564302E+04    0.22596E-04   -0.62417E-05  1530   0.743E-03    0.244E-02
RMM:   4    -0.186034563773E+04    0.52902E-05   -0.20662E-05  1510   0.336E-03    0.176E-02
RMM:   5    -0.186034563167E+04    0.60642E-05   -0.18717E-05  1522   0.350E-03    0.435E-03
RMM:   6    -0.186034563094E+04    0.72714E-06   -0.13286E-06  1376   0.993E-04    0.214E-03
RMM:   7    -0.186034563057E+04    0.36771E-06   -0.52653E-07  1260   0.595E-04    0.110E-03
RMM:   8    -0.186034563050E+04    0.69747E-07   -0.14912E-07   910   0.354E-04
 139 F= -.18844032E+04 E0= -.18844031E+04  d E =0.319445E-03
quench:  g(F)=  0.000E+00 g(S)=  0.000E+00 dE (1.order)= 0.000E+00
 bond charge predicted
       N       E                     dE             d eps       ncg     rms          rms(c)
DAV:   1    -0.186034579480E+04   -0.16423E-03   -0.14893E-01  1632   0.491E-01    0.117E-01
RMM:   2    -0.186034606738E+04   -0.27258E-03   -0.35370E-03  1536   0.691E-02    0.471E-02
RMM:   3    -0.186034602520E+04    0.42177E-04   -0.14286E-04  1538   0.112E-02    0.333E-02
RMM:   4    -0.186034602163E+04    0.35692E-05   -0.59478E-05  1534   0.640E-03    0.275E-02
RMM:   5    -0.186034600893E+04    0.12706E-04   -0.28161E-05  1529   0.406E-03    0.797E-03
RMM:   6    -0.186034600775E+04    0.11743E-05   -0.27489E-06  1467   0.148E-03    0.346E-03
RMM:   7    -0.186034600758E+04    0.17876E-06   -0.72675E-07  1295   0.686E-04    0.156E-03
RMM:   8    -0.186034600764E+04   -0.64523E-07   -0.35290E-07  1102   0.512E-04
 140 F= -.18844041E+04 E0= -.18844040E+04  d E =-.904780E-03
quench:  g(F)=  0.000E+00 g(S)=  0.000E+00 dE (1.order)= 0.000E+00
 reached required accuracy - stopping structural energy minimisation
