 running on   64 total cores
 distrk:  each k-point on   64 cores,    1 groups
 distr:  one band on    4 cores,   16 groups
 using from now: INCAR     
 vasp.5.4.4.18Apr17-6-g9f103f2a35 (build Oct 20 2021 08:33:53) complex           
 POSCAR found type information on POSCAR  C  H  O  Si W 
 POSCAR found :  5 types and     276 ions
 scaLAPACK will be used

 ----------------------------------------------------------------------------- 
|                                                                             |
|  ADVICE TO THIS USER RUNNING 'VASP/VAMP'   (HEAR YOUR MASTER'S VOICE ...):  |
|                                                                             |
|      You enforced a specific xc-type in the INCAR file,                     |
|      a different type was found on the POTCAR file                          |
|          I HOPE YOU KNOW, WHAT YOU ARE  DOING                               |
|                                                                             |
 ----------------------------------------------------------------------------- 

 LDA part: xc-table for Pade appr. of Perdew
 POSCAR found type information on POSCAR  C  H  O  Si W 
 POSCAR found :  5 types and     276 ions
 POSCAR, INCAR and KPOINTS ok, starting setup
 FFT: planning ...
 WAVECAR not read
 entering main loop
       N       E                     dE             d eps       ncg     rms          rms(c)
DAV:   1     0.127559679673E+05    0.12756E+05   -0.49575E+05  1728   0.123E+03
DAV:   2     0.596087673731E+03   -0.12160E+05   -0.11778E+05  2144   0.310E+02
DAV:   3    -0.201664042836E+04   -0.26127E+04   -0.26035E+04  1776   0.153E+02
DAV:   4    -0.211080019834E+04   -0.94160E+02   -0.93791E+02  1776   0.336E+01
DAV:   5    -0.211347297393E+04   -0.26728E+01   -0.26693E+01  1920   0.499E+00    0.128E+02
RMM:   6    -0.186751189896E+04    0.24596E+03   -0.11186E+03  1536   0.331E+01    0.534E+01
RMM:   7    -0.186517792800E+04    0.23340E+01   -0.66686E+01  1536   0.681E+00    0.317E+01
RMM:   8    -0.186488178960E+04    0.29614E+00   -0.21606E+01  1536   0.347E+00    0.165E+01
RMM:   9    -0.186086231317E+04    0.40195E+01   -0.60935E+00  1536   0.270E+00    0.383E+00
RMM:  10    -0.186056829698E+04    0.29402E+00   -0.65598E-01  1537   0.639E-01    0.227E+00
RMM:  11    -0.186042283411E+04    0.14546E+00   -0.39965E-01  1536   0.589E-01    0.138E+00
RMM:  12    -0.186030173678E+04    0.12110E+00   -0.18507E-01  1536   0.440E-01    0.130E+00
RMM:  13    -0.186026264086E+04    0.39096E-01   -0.32354E-02  1600   0.134E-01    0.359E-01
RMM:  14    -0.186023845973E+04    0.24181E-01   -0.28024E-02  1537   0.159E-01    0.324E-01
RMM:  15    -0.186023780551E+04    0.65422E-03   -0.11935E-02  1540   0.862E-02    0.118E-01
RMM:  16    -0.186024624720E+04   -0.84417E-02   -0.85290E-03  1536   0.702E-02    0.121E-01
RMM:  17    -0.186025359998E+04   -0.73528E-02   -0.45888E-03  1536   0.481E-02    0.372E-02
RMM:  18    -0.186025874294E+04   -0.51430E-02   -0.97318E-04  1577   0.223E-02    0.214E-02
RMM:  19    -0.186026378270E+04   -0.50398E-02   -0.52161E-04  1536   0.178E-02    0.264E-02
RMM:  20    -0.186026594871E+04   -0.21660E-02   -0.23799E-04  1536   0.103E-02    0.145E-02
RMM:  21    -0.186026696478E+04   -0.10161E-02   -0.12559E-04  1540   0.740E-03    0.894E-03
RMM:  22    -0.186026726337E+04   -0.29859E-03   -0.23805E-05  1541   0.365E-03    0.361E-03
RMM:  23    -0.186026743399E+04   -0.17062E-03   -0.83590E-06  1481   0.198E-03    0.201E-03
RMM:  24    -0.186026752996E+04   -0.95976E-04   -0.35011E-06  1373   0.126E-03    0.157E-03
RMM:  25    -0.186026758554E+04   -0.55579E-04   -0.21756E-06  1307   0.870E-04    0.107E-03
RMM:  26    -0.186026760906E+04   -0.23514E-04   -0.98647E-07  1206   0.585E-04    0.417E-04
RMM:  27    -0.186026761712E+04   -0.80590E-05   -0.28788E-07   977   0.337E-04    0.310E-04
RMM:  28    -0.186026762043E+04   -0.33183E-05   -0.87200E-08   909   0.217E-04    0.192E-04
RMM:  29    -0.186026762239E+04   -0.19527E-05   -0.48749E-08   821   0.169E-04    0.122E-04
RMM:  30    -0.186026762313E+04   -0.74116E-06   -0.18578E-08   634   0.113E-04    0.963E-05
RMM:  31    -0.186026762361E+04   -0.47850E-06   -0.12956E-08   727   0.111E-04    0.586E-05
RMM:  32    -0.186026762372E+04   -0.11048E-06   -0.18465E-09   355   0.747E-05    0.314E-05
RMM:  33    -0.186026762378E+04   -0.60885E-07   -0.13751E-09   343   0.751E-05
   1 F= -.18843118E+04 E0= -.18843113E+04  d E =-.188431E+04
quench:  g(F)=  0.000E+00 g(S)=  0.000E+00 dE (1.order)= 0.000E+00
 bond charge predicted
       N       E                     dE             d eps       ncg     rms          rms(c)
DAV:   1    -0.186026490254E+04    0.27212E-02   -0.35910E-02  1568   0.137E-01    0.726E-02
RMM:   2    -0.186026508997E+04   -0.18742E-03   -0.90876E-04  1526   0.172E-02    0.122E-01
RMM:   3    -0.186026486641E+04    0.22355E-03   -0.16011E-04  1462   0.646E-03    0.288E-02
RMM:   4    -0.186026486223E+04    0.41818E-05   -0.41519E-05  1353   0.355E-03    0.104E-02
RMM:   5    -0.186026486222E+04    0.12806E-07   -0.54430E-06  1189   0.128E-03    0.575E-03
RMM:   6    -0.186026486226E+04   -0.41997E-07   -0.97274E-07   999   0.552E-04
   2 F= -.18843089E+04 E0= -.18843085E+04  d E =0.282952E-02
quench:  g(F)=  0.000E+00 g(S)=  0.000E+00 dE (1.order)= 0.000E+00
 bond charge predicted
       N       E                     dE             d eps       ncg     rms          rms(c)
DAV:   1    -0.186026389292E+04    0.96930E-03   -0.38819E-02  1552   0.151E-01    0.468E-02
RMM:   2    -0.186026395937E+04   -0.66445E-04   -0.77243E-04  1532   0.184E-02    0.561E-02
RMM:   3    -0.186026393086E+04    0.28502E-04   -0.61727E-05  1402   0.389E-03    0.305E-02
RMM:   4    -0.186026392623E+04    0.46361E-05   -0.16865E-05  1332   0.236E-03    0.217E-02
RMM:   5    -0.186026392341E+04    0.28218E-05   -0.12122E-05  1344   0.200E-03    0.292E-03
RMM:   6    -0.186026392323E+04    0.17817E-06   -0.56035E-07   998   0.523E-04    0.206E-03
RMM:   7    -0.186026392315E+04    0.73604E-07   -0.14267E-07   863   0.268E-04
   3 F= -.18843078E+04 E0= -.18843074E+04  d E =0.112218E-02
quench:  g(F)=  0.000E+00 g(S)=  0.000E+00 dE (1.order)= 0.000E+00
 bond charge predicted
       N       E                     dE             d eps       ncg     rms          rms(c)
DAV:   1    -0.186026431368E+04   -0.39045E-03   -0.14374E-02  1552   0.915E-02    0.301E-02
RMM:   2    -0.186026434188E+04   -0.28205E-04   -0.28995E-04  1518   0.111E-02    0.404E-02
RMM:   3    -0.186026432453E+04    0.17351E-04   -0.25238E-05  1315   0.252E-03    0.182E-02
RMM:   4    -0.186026432286E+04    0.16664E-05   -0.73044E-06  1241   0.155E-03    0.120E-02
RMM:   5    -0.186026432235E+04    0.51252E-06   -0.37822E-06  1211   0.111E-03    0.182E-03
RMM:   6    -0.186026432243E+04   -0.84561E-07   -0.20469E-07   868   0.329E-04
   4 F= -.18843083E+04 E0= -.18843079E+04  d E =-.497129E-03
quench:  g(F)=  0.000E+00 g(S)=  0.000E+00 dE (1.order)= 0.000E+00
 bond charge predicted
       N       E                     dE             d eps       ncg     rms          rms(c)
DAV:   1    -0.186026266042E+04    0.16619E-02   -0.27572E-02  1616   0.156E-01    0.610E-02
RMM:   2    -0.186026278973E+04   -0.12931E-03   -0.67703E-04  1533   0.210E-02    0.925E-02
RMM:   3    -0.186026265984E+04    0.12989E-03   -0.97358E-05  1486   0.564E-03    0.279E-02
RMM:   4    -0.186026265524E+04    0.45966E-05   -0.18058E-05  1445   0.304E-03    0.137E-02
RMM:   5    -0.186026265425E+04    0.98514E-06   -0.77643E-06  1409   0.181E-03    0.533E-03
RMM:   6    -0.186026265417E+04    0.86307E-07   -0.10283E-06  1124   0.698E-04    0.183E-03
RMM:   7    -0.186026265424E+04   -0.76674E-07   -0.21292E-07   921   0.333E-04
   5 F= -.18843066E+04 E0= -.18843062E+04  d E =0.171490E-02
quench:  g(F)=  0.000E+00 g(S)=  0.000E+00 dE (1.order)= 0.000E+00
 bond charge predicted
       N       E                     dE             d eps       ncg     rms          rms(c)
DAV:   1    -0.186026370997E+04   -0.10558E-02   -0.15709E-02  1632   0.116E-01    0.475E-02
RMM:   2    -0.186026379139E+04   -0.81425E-04   -0.39407E-04  1532   0.157E-02    0.737E-02
RMM:   3    -0.186026370900E+04    0.82389E-04   -0.59865E-05  1462   0.441E-03    0.214E-02
RMM:   4    -0.186026370570E+04    0.33022E-05   -0.10742E-05  1400   0.236E-03    0.105E-02
RMM:   5    -0.186026370512E+04    0.57450E-06   -0.43630E-06  1346   0.135E-03    0.426E-03
RMM:   6    -0.186026370497E+04    0.15086E-06   -0.58406E-07  1031   0.532E-04    0.142E-03
RMM:   7    -0.186026370492E+04    0.53085E-07   -0.11079E-07   881   0.251E-04
   6 F= -.18843077E+04 E0= -.18843072E+04  d E =-.107512E-02
quench:  g(F)=  0.000E+00 g(S)=  0.000E+00 dE (1.order)= 0.000E+00
 bond charge predicted
       N       E                     dE             d eps       ncg     rms          rms(c)
DAV:   1    -0.186026180567E+04    0.18993E-02   -0.21576E-02  1696   0.153E-01    0.517E-02
RMM:   2    -0.186026183809E+04   -0.32421E-04   -0.49176E-04  1536   0.216E-02    0.274E-02
RMM:   3    -0.186026183413E+04    0.39661E-05   -0.27930E-05  1498   0.402E-03    0.229E-02
RMM:   4    -0.186026183139E+04    0.27374E-05   -0.16558E-05  1422   0.236E-03    0.200E-02
RMM:   5    -0.186026182622E+04    0.51688E-05   -0.69097E-06  1452   0.198E-03    0.331E-03
RMM:   6    -0.186026182616E+04    0.60667E-07   -0.54751E-07  1095   0.587E-04
   7 F= -.18843056E+04 E0= -.18843052E+04  d E =0.203171E-02
quench:  g(F)=  0.000E+00 g(S)=  0.000E+00 dE (1.order)= 0.000E+00
 bond charge predicted
       N       E                     dE             d eps       ncg     rms          rms(c)
DAV:   1    -0.186026319886E+04   -0.13726E-02   -0.14642E-02  1648   0.126E-01    0.425E-02
RMM:   2    -0.186026322082E+04   -0.21958E-04   -0.32867E-04  1535   0.177E-02    0.211E-02
RMM:   3    -0.186026321628E+04    0.45477E-05   -0.16089E-05  1486   0.327E-03    0.133E-02
RMM:   4    -0.186026321945E+04   -0.31702E-05   -0.12073E-05  1429   0.211E-03    0.189E-02
RMM:   5    -0.186026321441E+04    0.50403E-05   -0.33429E-06  1342   0.126E-03    0.275E-03
RMM:   6    -0.186026321433E+04    0.72279E-07   -0.40490E-07  1013   0.524E-04
   8 F= -.18843071E+04 E0= -.18843067E+04  d E =-.150509E-02
quench:  g(F)=  0.000E+00 g(S)=  0.000E+00 dE (1.order)= 0.000E+00
 bond charge predicted
       N       E                     dE             d eps       ncg     rms          rms(c)
DAV:   1    -0.186026320941E+04    0.49911E-05   -0.46711E-02  1632   0.254E-01    0.729E-02
RMM:   2    -0.186026328864E+04   -0.79224E-04   -0.11264E-03  1536   0.360E-02    0.442E-02
RMM:   3    -0.186026327380E+04    0.14840E-04   -0.43119E-05  1521   0.614E-03    0.304E-02
RMM:   4    -0.186026328402E+04   -0.10217E-04   -0.34265E-05  1504   0.395E-03    0.409E-02
RMM:   5    -0.186026326305E+04    0.20960E-04   -0.23717E-05  1502   0.344E-03    0.676E-03
RMM:   6    -0.186026326267E+04    0.38922E-06   -0.20557E-06  1277   0.115E-03    0.332E-03
RMM:   7    -0.186026326244E+04    0.22272E-06   -0.12746E-06  1344   0.929E-04    0.168E-03
RMM:   8    -0.186026326252E+04   -0.74535E-07   -0.24843E-07   981   0.446E-04
   9 F= -.18843072E+04 E0= -.18843068E+04  d E =-.500751E-04
quench:  g(F)=  0.000E+00 g(S)=  0.000E+00 dE (1.order)= 0.000E+00
 bond charge predicted
       N       E                     dE             d eps       ncg     rms          rms(c)
DAV:   1    -0.186026980011E+04   -0.65377E-02   -0.70062E-02  1616   0.283E-01    0.766E-02
RMM:   2    -0.186026988873E+04   -0.88629E-04   -0.13946E-03  1536   0.376E-02    0.405E-02
RMM:   3    -0.186026988740E+04    0.13386E-05   -0.93651E-05  1526   0.694E-03    0.447E-02
RMM:   4    -0.186026986866E+04    0.18732E-04   -0.21279E-05  1473   0.277E-03    0.232E-02
RMM:   5    -0.186026986590E+04    0.27593E-05   -0.25858E-05  1516   0.391E-03    0.620E-03
RMM:   6    -0.186026986526E+04    0.64161E-06   -0.14148E-06  1269   0.906E-04    0.233E-03
RMM:   7    -0.186026986516E+04    0.10476E-06   -0.36676E-07  1047   0.505E-04    0.132E-03
RMM:   8    -0.186026986514E+04    0.13388E-07   -0.16165E-07   922   0.336E-04
  10 F= -.18843142E+04 E0= -.18843137E+04  d E =-.700249E-02
quench:  g(F)=  0.000E+00 g(S)=  0.000E+00 dE (1.order)= 0.000E+00
 bond charge predicted
       N       E                     dE             d eps       ncg     rms          rms(c)
DAV:   1    -0.186024486725E+04    0.24998E-01   -0.11603E+01  1536   0.344E+00    0.114E+00
RMM:   2    -0.186028278243E+04   -0.37915E-01   -0.26290E-01  1536   0.491E-01    0.171E+00
RMM:   3    -0.186025503477E+04    0.27748E-01   -0.18022E-02  1540   0.904E-02    0.883E-01
RMM:   4    -0.186025406090E+04    0.97386E-03   -0.26030E-03  1538   0.397E-02    0.712E-01
RMM:   5    -0.186025218587E+04    0.18750E-02   -0.69547E-03  1536   0.608E-02    0.138E-01
RMM:   6    -0.186025203213E+04    0.15374E-03   -0.82390E-04  1546   0.198E-02    0.493E-02
RMM:   7    -0.186025202747E+04    0.46645E-05   -0.26524E-04  1536   0.114E-02    0.178E-02
RMM:   8    -0.186025206437E+04   -0.36900E-04   -0.21891E-05  1513   0.374E-03    0.836E-03
RMM:   9    -0.186025211939E+04   -0.55026E-04   -0.11319E-05  1471   0.233E-03    0.417E-03
RMM:  10    -0.186025217862E+04   -0.59224E-04   -0.78038E-06  1432   0.184E-03    0.267E-03
RMM:  11    -0.186025224032E+04   -0.61708E-04   -0.82980E-06  1390   0.174E-03    0.189E-03
RMM:  12    -0.186025227763E+04   -0.37302E-04   -0.42115E-06  1323   0.108E-03    0.949E-04
RMM:  13    -0.186025229419E+04   -0.16563E-04   -0.10685E-06  1188   0.558E-04    0.552E-04
RMM:  14    -0.186025230370E+04   -0.95137E-05   -0.38670E-07   999   0.355E-04    0.301E-04
RMM:  15    -0.186025230924E+04   -0.55332E-05   -0.16413E-07   893   0.261E-04    0.189E-04
RMM:  16    -0.186025231159E+04   -0.23552E-05   -0.74358E-08   830   0.185E-04    0.116E-04
RMM:  17    -0.186025231280E+04   -0.12079E-05   -0.34490E-08   765   0.142E-04    0.897E-05
RMM:  18    -0.186025231336E+04   -0.56268E-06   -0.13128E-08   647   0.106E-04    0.425E-05
RMM:  19    -0.186025231368E+04   -0.32071E-06   -0.53117E-09   523   0.902E-05    0.367E-05
RMM:  20    -0.186025231383E+04   -0.14587E-06   -0.22707E-09   404   0.781E-05    0.189E-05
RMM:  21    -0.186025231390E+04   -0.67244E-07   -0.16522E-09   373   0.760E-05
  11 F= -.18842997E+04 E0= -.18842993E+04  d E =0.145321E-01
quench:  g(F)=  0.000E+00 g(S)=  0.000E+00 dE (1.order)= 0.000E+00
 bond charge predicted
       N       E                     dE             d eps       ncg     rms          rms(c)
DAV:   1    -0.186024966701E+04    0.26468E-02   -0.32397E-02  1696   0.135E-01    0.639E-02
RMM:   2    -0.186024977006E+04   -0.10305E-03   -0.74424E-04  1533   0.171E-02    0.895E-02
RMM:   3    -0.186024964865E+04    0.12140E-03   -0.12733E-04  1467   0.560E-03    0.286E-02
RMM:   4    -0.186024964182E+04    0.68341E-05   -0.19932E-05  1370   0.281E-03    0.123E-02
RMM:   5    -0.186024964118E+04    0.63812E-06   -0.61759E-06  1237   0.132E-03    0.490E-03
RMM:   6    -0.186024964118E+04    0.43365E-08   -0.84164E-07   981   0.477E-04
  12 F= -.18842967E+04 E0= -.18842964E+04  d E =0.295551E-02
quench:  g(F)=  0.000E+00 g(S)=  0.000E+00 dE (1.order)= 0.000E+00
 bond charge predicted
       N       E                     dE             d eps       ncg     rms          rms(c)
DAV:   1    -0.186025258170E+04   -0.29405E-02   -0.57212E-02  1600   0.266E-01    0.684E-02
RMM:   2    -0.186025270325E+04   -0.12154E-03   -0.13094E-03  1536   0.360E-02    0.587E-02
RMM:   3    -0.186025267533E+04    0.27914E-04   -0.82775E-05  1521   0.664E-03    0.418E-02
RMM:   4    -0.186025265601E+04    0.19325E-04   -0.20794E-05  1475   0.314E-03    0.228E-02
RMM:   5    -0.186025265104E+04    0.49667E-05   -0.19869E-05  1505   0.345E-03    0.560E-03
RMM:   6    -0.186025265080E+04    0.23721E-06   -0.17140E-06  1223   0.978E-04    0.240E-03
RMM:   7    -0.186025265066E+04    0.13842E-06   -0.35128E-07   991   0.486E-04    0.163E-03
RMM:   8    -0.186025265071E+04   -0.41386E-07   -0.16962E-07   933   0.341E-04
  13 F= -.18842995E+04 E0= -.18842992E+04  d E =-.283108E-02
quench:  g(F)=  0.000E+00 g(S)=  0.000E+00 dE (1.order)= 0.000E+00
 bond charge predicted
       N       E                     dE             d eps       ncg     rms          rms(c)
DAV:   1    -0.186025024657E+04    0.24041E-02   -0.34335E-02  1648   0.205E-01    0.536E-02
RMM:   2    -0.186025032309E+04   -0.76519E-04   -0.78958E-04  1536   0.278E-02    0.485E-02
RMM:   3    -0.186025030207E+04    0.21027E-04   -0.53326E-05  1509   0.522E-03    0.323E-02
RMM:   4    -0.186025029071E+04    0.11353E-04   -0.12179E-05  1453   0.245E-03    0.173E-02
RMM:   5    -0.186025028810E+04    0.26134E-05   -0.11821E-05  1492   0.265E-03    0.425E-03
RMM:   6    -0.186025028792E+04    0.18120E-06   -0.10240E-06  1151   0.754E-04    0.180E-03
RMM:   7    -0.186025028777E+04    0.14843E-06   -0.20087E-07   933   0.372E-04    0.122E-03
RMM:   8    -0.186025028772E+04    0.52387E-07   -0.98017E-08   897   0.263E-04
  14 F= -.18842973E+04 E0= -.18842970E+04  d E =0.224445E-02
quench:  g(F)=  0.000E+00 g(S)=  0.000E+00 dE (1.order)= 0.000E+00
 bond charge predicted
       N       E                     dE             d eps       ncg     rms          rms(c)
DAV:   1    -0.186024617080E+04    0.41170E-02   -0.41049E-02  1632   0.212E-01    0.727E-02
RMM:   2    -0.186024625631E+04   -0.85514E-04   -0.96312E-04  1536   0.297E-02    0.668E-02
RMM:   3    -0.186024622219E+04    0.34123E-04   -0.92312E-05  1511   0.636E-03    0.577E-02
RMM:   4    -0.186024620074E+04    0.21455E-04   -0.13761E-05  1468   0.303E-03    0.335E-02
RMM:   5    -0.186024619613E+04    0.46088E-05   -0.18526E-05  1503   0.330E-03    0.115E-02
RMM:   6    -0.186024619523E+04    0.89375E-06   -0.37380E-06  1283   0.140E-03    0.245E-03
RMM:   7    -0.186024619530E+04   -0.66837E-07   -0.37289E-07  1017   0.529E-04
  15 F= -.18842932E+04 E0= -.18842929E+04  d E =0.406025E-02
quench:  g(F)=  0.000E+00 g(S)=  0.000E+00 dE (1.order)= 0.000E+00
 bond charge predicted
       N       E                     dE             d eps       ncg     rms          rms(c)
DAV:   1    -0.186024966839E+04   -0.34732E-02   -0.31214E-02  1632   0.184E-01    0.635E-02
RMM:   2    -0.186024973522E+04   -0.66836E-04   -0.72925E-04  1536   0.257E-02    0.590E-02
RMM:   3    -0.186024970711E+04    0.28114E-04   -0.71472E-05  1506   0.556E-03    0.500E-02
RMM:   4    -0.186024969166E+04    0.15445E-04   -0.10461E-05  1449   0.263E-03    0.291E-02
RMM:   5    -0.186024968853E+04    0.31315E-05   -0.13798E-05  1489   0.284E-03    0.995E-03
RMM:   6    -0.186024968785E+04    0.68230E-06   -0.27338E-06  1246   0.120E-03    0.212E-03
RMM:   7    -0.186024968780E+04    0.54933E-07   -0.25308E-07   955   0.446E-04
  16 F= -.18842967E+04 E0= -.18842964E+04  d E =-.345223E-02
quench:  g(F)=  0.000E+00 g(S)=  0.000E+00 dE (1.order)= 0.000E+00
 bond charge predicted
       N       E                     dE             d eps       ncg     rms          rms(c)
DAV:   1    -0.186025510473E+04   -0.54169E-02   -0.37943E-02  1696   0.205E-01    0.707E-02
RMM:   2    -0.186025517229E+04   -0.67559E-04   -0.94693E-04  1536   0.314E-02    0.822E-02
RMM:   3    -0.186025514740E+04    0.24883E-04   -0.41247E-05  1540   0.511E-03    0.660E-02
RMM:   4    -0.186025515232E+04   -0.49208E-05   -0.13907E-05  1449   0.250E-03    0.634E-02
RMM:   5    -0.186025513043E+04    0.21893E-04   -0.46000E-05  1523   0.546E-03    0.873E-03
RMM:   6    -0.186025512961E+04    0.82105E-06   -0.54172E-06  1305   0.175E-03    0.711E-03
RMM:   7    -0.186025512958E+04    0.30894E-07   -0.12844E-06  1240   0.904E-04    0.194E-03
RMM:   8    -0.186025512992E+04   -0.34193E-06   -0.32365E-07   991   0.464E-04    0.922E-04
RMM:   9    -0.186025513056E+04   -0.63844E-06   -0.18527E-07   944   0.328E-04    0.452E-04
RMM:  10    -0.186025513142E+04   -0.86380E-06   -0.13167E-07   879   0.255E-04    0.256E-04
RMM:  11    -0.186025513230E+04   -0.87767E-06   -0.14420E-07   900   0.249E-04    0.249E-04
RMM:  12    -0.186025513279E+04   -0.48548E-06   -0.57394E-08   712   0.164E-04    0.155E-04
RMM:  13    -0.186025513306E+04   -0.27369E-06   -0.25692E-08   647   0.121E-04    0.819E-05
RMM:  14    -0.186025513326E+04   -0.19818E-06   -0.11263E-08   559   0.975E-05    0.519E-05
RMM:  15    -0.186025513339E+04   -0.13158E-06   -0.64622E-09   474   0.874E-05    0.276E-05
RMM:  16    -0.186025513347E+04   -0.76659E-07   -0.43030E-09   421   0.809E-05
  17 F= -.18843022E+04 E0= -.18843018E+04  d E =-.546930E-02
quench:  g(F)=  0.000E+00 g(S)=  0.000E+00 dE (1.order)= 0.000E+00
 bond charge predicted
       N       E                     dE             d eps       ncg     rms          rms(c)
DAV:   1    -0.186024998730E+04    0.51461E-02   -0.33536E-02  1648   0.192E-01    0.667E-02
RMM:   2    -0.186025005067E+04   -0.63373E-04   -0.83518E-04  1536   0.295E-02    0.777E-02
RMM:   3    -0.186025002822E+04    0.22448E-04   -0.37379E-05  1537   0.482E-03    0.617E-02
RMM:   4    -0.186025003295E+04   -0.47291E-05   -0.12354E-05  1445   0.238E-03    0.589E-02
RMM:   5    -0.186025001619E+04    0.16764E-04   -0.39745E-05  1522   0.507E-03    0.803E-03
RMM:   6    -0.186025001522E+04    0.96489E-06   -0.45755E-06  1283   0.161E-03    0.634E-03
RMM:   7    -0.186025001486E+04    0.36195E-06   -0.11025E-06  1212   0.841E-04    0.174E-03
RMM:   8    -0.186025001486E+04    0.27358E-08   -0.26434E-07   963   0.427E-04
  18 F= -.18842970E+04 E0= -.18842967E+04  d E =0.514708E-02
quench:  g(F)=  0.000E+00 g(S)=  0.000E+00 dE (1.order)= 0.000E+00
 bond charge predicted
       N       E                     dE             d eps       ncg     rms          rms(c)
DAV:   1    -0.186024534791E+04    0.46670E-02   -0.57070E-02  1632   0.259E-01    0.871E-02
RMM:   2    -0.186024543161E+04   -0.83695E-04   -0.12550E-03  1536   0.359E-02    0.731E-02
RMM:   3    -0.186024541430E+04    0.17310E-04   -0.40016E-05  1515   0.568E-03    0.572E-02
RMM:   4    -0.186024544552E+04   -0.31219E-04   -0.59994E-05  1498   0.498E-03    0.669E-02
RMM:   5    -0.186024539620E+04    0.49315E-04   -0.45794E-05  1505   0.465E-03    0.795E-03
RMM:   6    -0.186024539718E+04   -0.97581E-06   -0.37636E-06  1290   0.157E-03    0.451E-03
RMM:   7    -0.186024539706E+04    0.11793E-06   -0.16637E-06  1327   0.106E-03    0.240E-03
RMM:   8    -0.186024539737E+04   -0.31511E-06   -0.23261E-07   978   0.428E-04    0.831E-04
RMM:   9    -0.186024539797E+04   -0.59910E-06   -0.18730E-07   930   0.321E-04    0.511E-04
RMM:  10    -0.186024539892E+04   -0.95103E-06   -0.25184E-07  1011   0.346E-04    0.285E-04
RMM:  11    -0.186024539938E+04   -0.45430E-06   -0.79181E-08   804   0.206E-04    0.205E-04
RMM:  12    -0.186024539983E+04   -0.44610E-06   -0.45087E-08   757   0.158E-04    0.977E-05
RMM:  13    -0.186024540006E+04   -0.23126E-06   -0.18221E-08   635   0.111E-04    0.526E-05
RMM:  14    -0.186024540027E+04   -0.21677E-06   -0.10792E-08   597   0.959E-05    0.305E-05
RMM:  15    -0.186024540039E+04   -0.12189E-06   -0.57459E-09   463   0.831E-05    0.255E-05
RMM:  16    -0.186024540045E+04   -0.58950E-07   -0.17630E-09   342   0.744E-05
  19 F= -.18842925E+04 E0= -.18842922E+04  d E =0.446694E-02
quench:  g(F)=  0.000E+00 g(S)=  0.000E+00 dE (1.order)= 0.000E+00
 bond charge predicted
       N       E                     dE             d eps       ncg     rms          rms(c)
DAV:   1    -0.186025528530E+04   -0.98849E-02   -0.88343E-02  1584   0.309E-01    0.103E-01
RMM:   2    -0.186025541319E+04   -0.12789E-03   -0.18500E-03  1536   0.429E-02    0.107E-01
RMM:   3    -0.186025538064E+04    0.32546E-04   -0.78126E-05  1527   0.677E-03    0.850E-02
RMM:   4    -0.186025540484E+04   -0.24198E-04   -0.52105E-05  1483   0.436E-03    0.889E-02
RMM:   5    -0.186025534773E+04    0.57113E-04   -0.77355E-05  1524   0.671E-03    0.101E-02
RMM:   6    -0.186025534824E+04   -0.51646E-06   -0.72211E-06  1342   0.207E-03    0.779E-03
RMM:   7    -0.186025534821E+04    0.29802E-07   -0.16202E-06  1314   0.109E-03    0.245E-03
RMM:   8    -0.186025534864E+04   -0.42660E-06   -0.60415E-07  1138   0.625E-04    0.107E-03
RMM:   9    -0.186025534929E+04   -0.65360E-06   -0.15585E-07   907   0.312E-04    0.539E-04
RMM:  10    -0.186025535074E+04   -0.14469E-05   -0.35433E-07  1090   0.400E-04    0.329E-04
RMM:  11    -0.186025535138E+04   -0.64277E-06   -0.85890E-08   834   0.220E-04    0.191E-04
RMM:  12    -0.186025535189E+04   -0.50357E-06   -0.51603E-08   753   0.165E-04    0.114E-04
RMM:  13    -0.186025535219E+04   -0.30207E-06   -0.22242E-08   668   0.121E-04    0.610E-05
RMM:  14    -0.186025535244E+04   -0.24783E-06   -0.14223E-08   615   0.101E-04    0.394E-05
RMM:  15    -0.186025535255E+04   -0.11273E-06   -0.50143E-09   441   0.827E-05    0.271E-05
RMM:  16    -0.186025535266E+04   -0.11042E-06   -0.64780E-09   503   0.846E-05    0.159E-05
RMM:  17    -0.186025535268E+04   -0.22570E-07   -0.16931E-09   341   0.708E-05
  20 F= -.18843027E+04 E0= -.18843024E+04  d E =-.101818E-01
quench:  g(F)=  0.000E+00 g(S)=  0.000E+00 dE (1.order)= 0.000E+00
 bond charge predicted
       N       E                     dE             d eps       ncg     rms          rms(c)
DAV:   1    -0.186028035574E+04   -0.25003E-01   -0.21363E+01  1536   0.440E+00    0.123E+00
RMM:   2    -0.186031888918E+04   -0.38533E-01   -0.40090E-01  1536   0.553E-01    0.124E+00
RMM:   3    -0.186030310165E+04    0.15788E-01   -0.30396E-02  1538   0.117E-01    0.103E+00
RMM:   4    -0.186029954846E+04    0.35532E-02   -0.29131E-03  1546   0.359E-02    0.799E-01
RMM:   5    -0.186029733852E+04    0.22099E-02   -0.85621E-03  1536   0.630E-02    0.156E-01
RMM:   6    -0.186029724418E+04    0.94344E-04   -0.12098E-03  1544   0.229E-02    0.540E-02
RMM:   7    -0.186029723591E+04    0.82683E-05   -0.10078E-04  1521   0.766E-03    0.297E-02
RMM:   8    -0.186029732374E+04   -0.87832E-04   -0.11177E-04  1526   0.641E-03    0.139E-02
RMM:   9    -0.186029737150E+04   -0.47754E-04   -0.16378E-05  1449   0.273E-03    0.641E-03
RMM:  10    -0.186029745702E+04   -0.85525E-04   -0.10833E-05  1398   0.201E-03    0.320E-03
RMM:  11    -0.186029750797E+04   -0.50946E-04   -0.49712E-06  1334   0.121E-03    0.267E-03
RMM:  12    -0.186029758587E+04   -0.77897E-04   -0.92126E-06  1361   0.160E-03    0.123E-03
RMM:  13    -0.186029761411E+04   -0.28242E-04   -0.27602E-06  1247   0.775E-04    0.705E-04
RMM:  14    -0.186029763476E+04   -0.20652E-04   -0.14315E-06  1181   0.567E-04    0.495E-04
RMM:  15    -0.186029764578E+04   -0.11024E-04   -0.49735E-07  1028   0.384E-04    0.349E-04
RMM:  16    -0.186029765094E+04   -0.51558E-05   -0.17748E-07   893   0.257E-04    0.193E-04
RMM:  17    -0.186029765341E+04   -0.24752E-05   -0.77390E-08   851   0.196E-04    0.901E-05
RMM:  18    -0.186029765427E+04   -0.85712E-06   -0.25561E-08   724   0.132E-04    0.613E-05
RMM:  19    -0.186029765460E+04   -0.33103E-06   -0.83966E-09   599   0.987E-05    0.322E-05
RMM:  20    -0.186029765484E+04   -0.23896E-06   -0.35645E-09   479   0.847E-05    0.202E-05
RMM:  21    -0.186029765492E+04   -0.76150E-07   -0.12494E-09   359   0.750E-05
  21 F= -.18843426E+04 E0= -.18843424E+04  d E =-.398481E-01
quench:  g(F)=  0.000E+00 g(S)=  0.000E+00 dE (1.order)= 0.000E+00
 bond charge predicted
       N       E                     dE             d eps       ncg     rms          rms(c)
DAV:   1    -0.186029834443E+04   -0.68959E-03   -0.28981E-02  1696   0.122E-01    0.581E-02
RMM:   2    -0.186029839798E+04   -0.53552E-04   -0.66382E-04  1532   0.154E-02    0.653E-02
RMM:   3    -0.186029833628E+04    0.61698E-04   -0.10472E-04  1448   0.471E-03    0.268E-02
RMM:   4    -0.186029832832E+04    0.79667E-05   -0.18575E-05  1355   0.245E-03    0.984E-03
RMM:   5    -0.186029832784E+04    0.47314E-06   -0.47792E-06  1195   0.114E-03    0.400E-03
RMM:   6    -0.186029832789E+04   -0.46159E-07   -0.70485E-07   962   0.444E-04
  22 F= -.18843424E+04 E0= -.18843422E+04  d E =0.187077E-03
quench:  g(F)=  0.000E+00 g(S)=  0.000E+00 dE (1.order)= 0.000E+00
 bond charge predicted
       N       E                     dE             d eps       ncg     rms          rms(c)
DAV:   1    -0.186029632048E+04    0.20074E-02   -0.37521E-02  1568   0.174E-01    0.771E-02
RMM:   2    -0.186029636912E+04   -0.48642E-04   -0.77426E-04  1536   0.260E-02    0.586E-02
RMM:   3    -0.186029636417E+04    0.49516E-05   -0.66209E-05  1485   0.568E-03    0.483E-02
RMM:   4    -0.186029635021E+04    0.13960E-04   -0.58890E-05  1484   0.552E-03    0.240E-02
RMM:   5    -0.186029634115E+04    0.90544E-05   -0.89135E-06  1373   0.203E-03    0.541E-03
RMM:   6    -0.186029634088E+04    0.27595E-06   -0.16905E-06  1255   0.100E-03    0.275E-03
RMM:   7    -0.186029634090E+04   -0.26397E-07   -0.50570E-07  1068   0.583E-04
  23 F= -.18843420E+04 E0= -.18843418E+04  d E =0.428485E-03
quench:  g(F)=  0.000E+00 g(S)=  0.000E+00 dE (1.order)= 0.000E+00
 bond charge predicted
       N       E                     dE             d eps       ncg     rms          rms(c)
DAV:   1    -0.186029808452E+04   -0.17436E-02   -0.27842E-02  1600   0.150E-01    0.661E-02
RMM:   2    -0.186029812173E+04   -0.37208E-04   -0.57661E-04  1535   0.223E-02    0.506E-02
RMM:   3    -0.186029811817E+04    0.35593E-05   -0.50416E-05  1478   0.485E-03    0.422E-02
RMM:   4    -0.186029810646E+04    0.11704E-04   -0.42748E-05  1480   0.477E-03    0.195E-02
RMM:   5    -0.186029810096E+04    0.55016E-05   -0.63514E-06  1339   0.173E-03    0.473E-03
RMM:   6    -0.186029810083E+04    0.13103E-06   -0.12373E-06  1198   0.859E-04    0.237E-03
RMM:   7    -0.186029810085E+04   -0.22817E-07   -0.35862E-07  1007   0.498E-04
  24 F= -.18843425E+04 E0= -.18843423E+04  d E =-.498635E-03
quench:  g(F)=  0.000E+00 g(S)=  0.000E+00 dE (1.order)= 0.000E+00
 bond charge predicted
       N       E                     dE             d eps       ncg     rms          rms(c)
DAV:   1    -0.186029840957E+04   -0.30874E-03   -0.54471E-02  1664   0.241E-01    0.698E-02
RMM:   2    -0.186029853105E+04   -0.12148E-03   -0.12547E-03  1536   0.342E-02    0.121E-01
RMM:   3    -0.186029848661E+04    0.44444E-04   -0.35328E-05  1547   0.496E-03    0.110E-01
RMM:   4    -0.186029848542E+04    0.11877E-05   -0.32167E-06  1352   0.120E-03    0.111E-01
RMM:   5    -0.186029847271E+04    0.12713E-04   -0.73153E-05  1501   0.607E-03    0.248E-02
RMM:   6    -0.186029846797E+04    0.47372E-05   -0.10647E-05  1451   0.234E-03    0.146E-02
RMM:   7    -0.186029846758E+04    0.39658E-06   -0.21693E-06  1259   0.948E-04    0.116E-02
RMM:   8    -0.186029846740E+04    0.17528E-06   -0.11197E-06  1081   0.674E-04    0.684E-03
RMM:   9    -0.186029846769E+04   -0.29324E-06   -0.68811E-07  1030   0.547E-04    0.329E-03
RMM:  10    -0.186029846808E+04   -0.38152E-06   -0.34832E-07   969   0.413E-04    0.607E-04
RMM:  11    -0.186029846858E+04   -0.50422E-06   -0.13103E-07   867   0.269E-04    0.728E-04
RMM:  12    -0.186029846890E+04   -0.32371E-06   -0.44753E-08   742   0.163E-04    0.361E-04
RMM:  13    -0.186029846929E+04   -0.38766E-06   -0.52652E-08   810   0.169E-04    0.259E-04
RMM:  14    -0.186029846946E+04   -0.17055E-06   -0.20627E-08   633   0.112E-04    0.957E-05
RMM:  15    -0.186029846955E+04   -0.85143E-07   -0.68484E-09   476   0.869E-05
  25 F= -.18843430E+04 E0= -.18843429E+04  d E =-.559764E-03
quench:  g(F)=  0.000E+00 g(S)=  0.000E+00 dE (1.order)= 0.000E+00
 bond charge predicted
       N       E                     dE             d eps       ncg     rms          rms(c)
DAV:   1    -0.186029819081E+04    0.27865E-03   -0.37465E-02  1632   0.200E-01    0.584E-02
RMM:   2    -0.186029827945E+04   -0.88646E-04   -0.86885E-04  1536   0.283E-02    0.101E-01
RMM:   3    -0.186029824588E+04    0.33574E-04   -0.25523E-05  1519   0.413E-03    0.903E-02
RMM:   4    -0.186029824534E+04    0.54059E-06   -0.23156E-06  1303   0.102E-03    0.917E-02
RMM:   5    -0.186029823946E+04    0.58761E-05   -0.50141E-05  1491   0.500E-03    0.253E-02
RMM:   6    -0.186029823612E+04    0.33432E-05   -0.74085E-06  1426   0.193E-03    0.124E-02
RMM:   7    -0.186029823564E+04    0.47821E-06   -0.16695E-06  1200   0.830E-04    0.952E-03
RMM:   8    -0.186029823534E+04    0.30280E-06   -0.65335E-07  1013   0.528E-04    0.653E-03
RMM:   9    -0.186029823526E+04    0.74360E-07   -0.71400E-07  1067   0.549E-04
  26 F= -.18843426E+04 E0= -.18843424E+04  d E =0.414672E-03
quench:  g(F)=  0.000E+00 g(S)=  0.000E+00 dE (1.order)= 0.000E+00
 bond charge predicted
       N       E                     dE             d eps       ncg     rms          rms(c)
DAV:   1    -0.186029936683E+04   -0.11315E-02   -0.33167E-02  1648   0.171E-01    0.780E-02
RMM:   2    -0.186029941944E+04   -0.52618E-04   -0.80889E-04  1536   0.274E-02    0.635E-02
RMM:   3    -0.186029940533E+04    0.14117E-04   -0.42245E-05  1492   0.560E-03    0.386E-02
RMM:   4    -0.186029940636E+04   -0.10283E-05   -0.33760E-05  1498   0.486E-03    0.253E-02
RMM:   5    -0.186029939871E+04    0.76465E-05   -0.11208E-05  1325   0.186E-03    0.873E-03
RMM:   6    -0.186029939770E+04    0.10116E-05   -0.17849E-06  1270   0.102E-03    0.345E-03
RMM:   7    -0.186029939783E+04   -0.13551E-06   -0.63415E-07  1128   0.678E-04    0.154E-03
RMM:   8    -0.186029939811E+04   -0.27900E-06   -0.14128E-07   899   0.356E-04    0.442E-04
RMM:   9    -0.186029939835E+04   -0.24021E-06   -0.29055E-08   758   0.157E-04    0.265E-04
RMM:  10    -0.186029939877E+04   -0.41761E-06   -0.44557E-08   799   0.171E-04    0.170E-04
RMM:  11    -0.186029939903E+04   -0.26327E-06   -0.23723E-08   639   0.119E-04    0.939E-05
RMM:  12    -0.186029939926E+04   -0.22705E-06   -0.15402E-08   569   0.999E-05    0.498E-05
RMM:  13    -0.186029939942E+04   -0.16116E-06   -0.10121E-08   512   0.888E-05    0.354E-05
RMM:  14    -0.186029939952E+04   -0.97090E-07   -0.58032E-09   421   0.794E-05
  27 F= -.18843417E+04 E0= -.18843415E+04  d E =0.908231E-03
quench:  g(F)=  0.000E+00 g(S)=  0.000E+00 dE (1.order)= 0.000E+00
 bond charge predicted
       N       E                     dE             d eps       ncg     rms          rms(c)
DAV:   1    -0.186029828454E+04    0.11149E-02   -0.30358E-02  1600   0.163E-01    0.748E-02
RMM:   2    -0.186029833328E+04   -0.48741E-04   -0.74118E-04  1536   0.261E-02    0.606E-02
RMM:   3    -0.186029832062E+04    0.12658E-04   -0.39518E-05  1489   0.540E-03    0.364E-02
RMM:   4    -0.186029832336E+04   -0.27402E-05   -0.31492E-05  1492   0.463E-03    0.256E-02
RMM:   5    -0.186029831488E+04    0.84791E-05   -0.10523E-05  1321   0.180E-03    0.801E-03
RMM:   6    -0.186029831420E+04    0.68554E-06   -0.15958E-06  1248   0.990E-04    0.327E-03
RMM:   7    -0.186029831421E+04   -0.10812E-07   -0.58958E-07  1113   0.656E-04
  28 F= -.18843426E+04 E0= -.18843424E+04  d E =-.914524E-03
quench:  g(F)=  0.000E+00 g(S)=  0.000E+00 dE (1.order)= 0.000E+00
 bond charge predicted
       N       E                     dE             d eps       ncg     rms          rms(c)
DAV:   1    -0.186029789840E+04    0.41580E-03   -0.38036E-02  1632   0.204E-01    0.587E-02
RMM:   2    -0.186029798355E+04   -0.85159E-04   -0.89815E-04  1536   0.292E-02    0.898E-02
RMM:   3    -0.186029795151E+04    0.32048E-04   -0.30513E-05  1525   0.457E-03    0.769E-02
RMM:   4    -0.186029795363E+04   -0.21270E-05   -0.25362E-06  1297   0.114E-03    0.777E-02
RMM:   5    -0.186029794992E+04    0.37166E-05   -0.56784E-05  1526   0.606E-03    0.180E-02
RMM:   6    -0.186029794694E+04    0.29802E-05   -0.18165E-05  1459   0.308E-03    0.312E-02
RMM:   7    -0.186029794512E+04    0.18182E-05   -0.35981E-06  1398   0.150E-03    0.133E-02
RMM:   8    -0.186029794502E+04    0.10332E-06   -0.10398E-06  1195   0.732E-04    0.676E-03
RMM:   9    -0.186029794524E+04   -0.22197E-06   -0.47806E-07  1071   0.517E-04    0.156E-03
RMM:  10    -0.186029794551E+04   -0.26963E-06   -0.14127E-07   907   0.302E-04    0.681E-04
RMM:  11    -0.186029794583E+04   -0.32109E-06   -0.46103E-08   783   0.182E-04    0.295E-04
RMM:  12    -0.186029794609E+04   -0.25964E-06   -0.35521E-08   798   0.153E-04    0.290E-04
RMM:  13    -0.186029794628E+04   -0.19155E-06   -0.29217E-08   708   0.135E-04    0.580E-04
RMM:  14    -0.186029794639E+04   -0.10621E-06   -0.93928E-09   536   0.941E-05    0.146E-04
RMM:  15    -0.186029794647E+04   -0.87981E-07   -0.68263E-09   525   0.891E-05
  29 F= -.18843423E+04 E0= -.18843422E+04  d E =0.271551E-03
quench:  g(F)=  0.000E+00 g(S)=  0.000E+00 dE (1.order)= 0.000E+00
 bond charge predicted
       N       E                     dE             d eps       ncg     rms          rms(c)
DAV:   1    -0.186030320109E+04   -0.52547E-02   -0.10601E-01  1568   0.367E-01    0.116E-01
RMM:   2    -0.186030345711E+04   -0.25603E-03   -0.29615E-03  1536   0.569E-02    0.115E-01
RMM:   3    -0.186030337435E+04    0.82761E-04   -0.16822E-04  1538   0.947E-03    0.745E-02
RMM:   4    -0.186030336677E+04    0.75878E-05   -0.64021E-05  1526   0.558E-03    0.698E-02
RMM:   5    -0.186030333474E+04    0.32023E-04   -0.89913E-05  1533   0.762E-03    0.939E-03
RMM:   6    -0.186030333357E+04    0.11752E-05   -0.57918E-06  1398   0.192E-03    0.500E-03
RMM:   7    -0.186030333317E+04    0.40076E-06   -0.19030E-06  1346   0.105E-03    0.263E-03
RMM:   8    -0.186030333329E+04   -0.12536E-06   -0.46229E-07  1087   0.585E-04    0.923E-04
RMM:   9    -0.186030333375E+04   -0.45756E-06   -0.12428E-07   916   0.295E-04    0.521E-04
RMM:  10    -0.186030333450E+04   -0.74686E-06   -0.13660E-07   914   0.270E-04    0.309E-04
RMM:  11    -0.186030333530E+04   -0.80062E-06   -0.14082E-07   893   0.250E-04    0.246E-04
RMM:  12    -0.186030333579E+04   -0.49514E-06   -0.62199E-08   749   0.170E-04    0.114E-04
RMM:  13    -0.186030333609E+04   -0.29974E-06   -0.29747E-08   665   0.127E-04    0.688E-05
RMM:  14    -0.186030333635E+04   -0.26308E-06   -0.16497E-08   638   0.107E-04    0.366E-05
RMM:  15    -0.186030333647E+04   -0.11030E-06   -0.55974E-09   458   0.841E-05    0.306E-05
RMM:  16    -0.186030333657E+04   -0.10111E-06   -0.51864E-09   452   0.828E-05    0.141E-05
RMM:  17    -0.186030333659E+04   -0.28100E-07   -0.16415E-09   340   0.733E-05
  30 F= -.18843484E+04 E0= -.18843482E+04  d E =-.601680E-02
quench:  g(F)=  0.000E+00 g(S)=  0.000E+00 dE (1.order)= 0.000E+00
 bond charge predicted
       N       E                     dE             d eps       ncg     rms          rms(c)
DAV:   1    -0.186031232256E+04   -0.89860E-02   -0.10146E+00  1536   0.119E+00    0.376E-01
RMM:   2    -0.186031421337E+04   -0.18908E-02   -0.26842E-02  1536   0.178E-01    0.196E-01
RMM:   3    -0.186031402285E+04    0.19052E-03   -0.19336E-03  1536   0.338E-02    0.216E-01
RMM:   4    -0.186031340995E+04    0.61290E-03   -0.44095E-04  1535   0.150E-02    0.877E-02
RMM:   5    -0.186031334077E+04    0.69176E-04   -0.37084E-04  1536   0.161E-02    0.316E-02
RMM:   6    -0.186031332813E+04    0.12637E-04   -0.42876E-05  1552   0.501E-03    0.109E-02
RMM:   7    -0.186031332412E+04    0.40085E-05   -0.75876E-06  1510   0.223E-03    0.606E-03
RMM:   8    -0.186031332323E+04    0.89539E-06   -0.52201E-06  1515   0.191E-03    0.252E-03
RMM:   9    -0.186031332567E+04   -0.24392E-05   -0.12925E-06  1347   0.776E-04    0.156E-03
RMM:  10    -0.186031333009E+04   -0.44185E-05   -0.19546E-06  1381   0.104E-03    0.883E-04
RMM:  11    -0.186031333279E+04   -0.27061E-05   -0.50612E-07  1178   0.468E-04    0.502E-04
RMM:  12    -0.186031333577E+04   -0.29822E-05   -0.33731E-07  1058   0.377E-04    0.287E-04
RMM:  13    -0.186031333760E+04   -0.18273E-05   -0.12032E-07   841   0.239E-04    0.167E-04
RMM:  14    -0.186031333880E+04   -0.11975E-05   -0.72025E-08   816   0.185E-04    0.954E-05
RMM:  15    -0.186031333955E+04   -0.74647E-06   -0.40341E-08   720   0.143E-04    0.571E-05
RMM:  16    -0.186031333988E+04   -0.33397E-06   -0.18480E-08   634   0.109E-04    0.307E-05
RMM:  17    -0.186031334006E+04   -0.17845E-06   -0.73694E-09   511   0.881E-05    0.175E-05
RMM:  18    -0.186031334014E+04   -0.85522E-07   -0.26959E-09   384   0.778E-05
  31 F= -.18843587E+04 E0= -.18843586E+04  d E =-.103701E-01
quench:  g(F)=  0.000E+00 g(S)=  0.000E+00 dE (1.order)= 0.000E+00
 bond charge predicted
       N       E                     dE             d eps       ncg     rms          rms(c)
DAV:   1    -0.186031403878E+04   -0.69872E-03   -0.30885E-02  1632   0.123E-01    0.599E-02
RMM:   2    -0.186031408841E+04   -0.49629E-04   -0.70914E-04  1533   0.156E-02    0.620E-02
RMM:   3    -0.186031403238E+04    0.56027E-04   -0.11012E-04  1445   0.494E-03    0.313E-02
RMM:   4    -0.186031402301E+04    0.93707E-05   -0.16389E-05  1353   0.236E-03    0.148E-02
RMM:   5    -0.186031402160E+04    0.14093E-05   -0.73255E-06  1266   0.145E-03    0.526E-03
RMM:   6    -0.186031402151E+04    0.86526E-07   -0.80001E-07  1008   0.504E-04
  32 F= -.18843588E+04 E0= -.18843587E+04  d E =-.759035E-04
quench:  g(F)=  0.000E+00 g(S)=  0.000E+00 dE (1.order)= 0.000E+00
 bond charge predicted
       N       E                     dE             d eps       ncg     rms          rms(c)
DAV:   1    -0.186031312092E+04    0.90068E-03   -0.60751E-02  1616   0.288E-01    0.882E-02
RMM:   2    -0.186031321996E+04   -0.99043E-04   -0.14276E-03  1536   0.394E-02    0.311E-02
RMM:   3    -0.186031320077E+04    0.19191E-04   -0.49464E-05  1526   0.658E-03    0.223E-02
RMM:   4    -0.186031319967E+04    0.11028E-05   -0.20363E-05  1502   0.318E-03    0.196E-02
RMM:   5    -0.186031319298E+04    0.66870E-05   -0.13671E-05  1501   0.274E-03    0.478E-03
RMM:   6    -0.186031319274E+04    0.24452E-06   -0.69350E-07  1158   0.721E-04    0.205E-03
RMM:   7    -0.186031319263E+04    0.10908E-06   -0.23183E-07   951   0.401E-04    0.102E-03
RMM:   8    -0.186031319261E+04    0.22032E-07   -0.13439E-07   905   0.302E-04
  33 F= -.18843583E+04 E0= -.18843582E+04  d E =0.510988E-03
quench:  g(F)=  0.000E+00 g(S)=  0.000E+00 dE (1.order)= 0.000E+00
 bond charge predicted
       N       E                     dE             d eps       ncg     rms          rms(c)
DAV:   1    -0.186031389915E+04   -0.70653E-03   -0.40182E-02  1664   0.233E-01    0.718E-02
RMM:   2    -0.186031396436E+04   -0.65202E-04   -0.94333E-04  1535   0.319E-02    0.261E-02
RMM:   3    -0.186031395321E+04    0.11146E-04   -0.35770E-05  1521   0.543E-03    0.212E-02
RMM:   4    -0.186031395012E+04    0.30932E-05   -0.11502E-05  1471   0.226E-03    0.150E-02
RMM:   5    -0.186031394649E+04    0.36259E-05   -0.10679E-05  1498   0.255E-03    0.376E-03
RMM:   6    -0.186031394620E+04    0.29548E-06   -0.47446E-07  1088   0.593E-04    0.163E-03
RMM:   7    -0.186031394605E+04    0.14952E-06   -0.14297E-07   919   0.334E-04    0.838E-04
RMM:   8    -0.186031394595E+04    0.91197E-07   -0.86852E-08   891   0.252E-04
  34 F= -.18843588E+04 E0= -.18843586E+04  d E =-.469728E-03
quench:  g(F)=  0.000E+00 g(S)=  0.000E+00 dE (1.order)= 0.000E+00
 bond charge predicted
       N       E                     dE             d eps       ncg     rms          rms(c)
DAV:   1    -0.186031361391E+04    0.33213E-03   -0.45510E-02  1632   0.256E-01    0.984E-02
RMM:   2    -0.186031370194E+04   -0.88021E-04   -0.13267E-03  1536   0.392E-02    0.467E-02
RMM:   3    -0.186031369159E+04    0.10348E-04   -0.10384E-04  1529   0.789E-03    0.452E-02
RMM:   4    -0.186031365264E+04    0.38947E-04   -0.38785E-05  1508   0.417E-03    0.178E-02
RMM:   5    -0.186031364558E+04    0.70626E-05   -0.19571E-05  1520   0.356E-03    0.399E-03
RMM:   6    -0.186031364434E+04    0.12365E-05   -0.17397E-06  1427   0.988E-04    0.229E-03
RMM:   7    -0.186031364353E+04    0.81159E-06   -0.10424E-06  1376   0.832E-04    0.970E-04
RMM:   8    -0.186031364349E+04    0.35769E-07   -0.22539E-07   983   0.371E-04
  35 F= -.18843581E+04 E0= -.18843579E+04  d E =0.680777E-03
quench:  g(F)=  0.000E+00 g(S)=  0.000E+00 dE (1.order)= 0.000E+00
 bond charge predicted
       N       E                     dE             d eps       ncg     rms          rms(c)
DAV:   1    -0.186031395348E+04   -0.30995E-03   -0.36244E-02  1632   0.228E-01    0.892E-02
RMM:   2    -0.186031402514E+04   -0.71661E-04   -0.10487E-03  1536   0.349E-02    0.423E-02
RMM:   3    -0.186031401866E+04    0.64762E-05   -0.85452E-05  1525   0.706E-03    0.409E-02
RMM:   4    -0.186031398698E+04    0.31683E-04   -0.31086E-05  1505   0.374E-03    0.155E-02
RMM:   5    -0.186031398249E+04    0.44873E-05   -0.15101E-05  1510   0.314E-03    0.345E-03
RMM:   6    -0.186031398186E+04    0.63211E-06   -0.12648E-06  1382   0.854E-04    0.196E-03
RMM:   7    -0.186031398141E+04    0.45283E-06   -0.71133E-07  1321   0.699E-04    0.775E-04
RMM:   8    -0.186031398138E+04    0.30283E-07   -0.12978E-07   910   0.302E-04
  36 F= -.18843587E+04 E0= -.18843586E+04  d E =-.658931E-03
quench:  g(F)=  0.000E+00 g(S)=  0.000E+00 dE (1.order)= 0.000E+00
 bond charge predicted
       N       E                     dE             d eps       ncg     rms          rms(c)
DAV:   1    -0.186031231824E+04    0.16632E-02   -0.48060E-02  1680   0.242E-01    0.841E-02
RMM:   2    -0.186031240814E+04   -0.89895E-04   -0.11298E-03  1536   0.345E-02    0.562E-02
RMM:   3    -0.186031239796E+04    0.10172E-04   -0.81516E-05  1524   0.684E-03    0.556E-02
RMM:   4    -0.186031237232E+04    0.25642E-04   -0.19598E-05  1485   0.321E-03    0.287E-02
RMM:   5    -0.186031236902E+04    0.32968E-05   -0.18187E-05  1512   0.349E-03    0.891E-03
RMM:   6    -0.186031236828E+04    0.74743E-06   -0.29984E-06  1286   0.126E-03    0.273E-03
RMM:   7    -0.186031236829E+04   -0.10084E-07   -0.50168E-07  1105   0.630E-04
  37 F= -.18843584E+04 E0= -.18843582E+04  d E =0.376950E-03
quench:  g(F)=  0.000E+00 g(S)=  0.000E+00 dE (1.order)= 0.000E+00
 bond charge predicted
       N       E                     dE             d eps       ncg     rms          rms(c)
DAV:   1    -0.186031386134E+04   -0.14931E-02   -0.42312E-02  1600   0.226E-01    0.787E-02
RMM:   2    -0.186031394177E+04   -0.80430E-04   -0.99240E-04  1536   0.323E-02    0.528E-02
RMM:   3    -0.186031393170E+04    0.10075E-04   -0.72058E-05  1523   0.643E-03    0.522E-02
RMM:   4    -0.186031391028E+04    0.21422E-04   -0.16745E-05  1477   0.297E-03    0.272E-02
RMM:   5    -0.186031390754E+04    0.27388E-05   -0.15862E-05  1508   0.326E-03    0.860E-03
RMM:   6    -0.186031390678E+04    0.75277E-06   -0.26603E-06  1253   0.120E-03    0.254E-03
RMM:   7    -0.186031390668E+04    0.10418E-06   -0.42521E-07  1058   0.590E-04    0.131E-03
RMM:   8    -0.186031390668E+04   -0.26193E-09   -0.12090E-07   915   0.327E-04
  38 F= -.18843588E+04 E0= -.18843586E+04  d E =-.390296E-03
quench:  g(F)=  0.000E+00 g(S)=  0.000E+00 dE (1.order)= 0.000E+00
 bond charge predicted
       N       E                     dE             d eps       ncg     rms          rms(c)
DAV:   1    -0.186031449492E+04   -0.58824E-03   -0.38798E-02  1648   0.187E-01    0.910E-02
RMM:   2    -0.186031456527E+04   -0.70349E-04   -0.95851E-04  1536   0.302E-02    0.826E-02
RMM:   3    -0.186031454762E+04    0.17648E-04   -0.49854E-05  1504   0.548E-03    0.579E-02
RMM:   4    -0.186031456239E+04   -0.14770E-04   -0.61997E-05  1499   0.534E-03    0.534E-02
RMM:   5    -0.186031452873E+04    0.33661E-04   -0.24553E-05  1473   0.318E-03    0.729E-03
RMM:   6    -0.186031452938E+04   -0.64693E-06   -0.29152E-06  1279   0.133E-03    0.334E-03
RMM:   7    -0.186031452956E+04   -0.18608E-06   -0.59939E-07  1115   0.659E-04    0.158E-03
RMM:   8    -0.186031453002E+04   -0.45959E-06   -0.16452E-07   929   0.375E-04    0.507E-04
RMM:   9    -0.186031453043E+04   -0.41093E-06   -0.61085E-08   834   0.201E-04    0.316E-04
RMM:  10    -0.186031453113E+04   -0.70018E-06   -0.92703E-08   867   0.220E-04    0.177E-04
RMM:  11    -0.186031453154E+04   -0.41153E-06   -0.50152E-08   739   0.155E-04    0.145E-04
RMM:  12    -0.186031453191E+04   -0.36074E-06   -0.32354E-08   706   0.129E-04    0.686E-05
RMM:  13    -0.186031453209E+04   -0.18730E-06   -0.15232E-08   592   0.101E-04    0.370E-05
RMM:  14    -0.186031453225E+04   -0.15293E-06   -0.86763E-09   489   0.884E-05    0.241E-05
RMM:  15    -0.186031453231E+04   -0.62078E-07   -0.31572E-09   367   0.771E-05
  39 F= -.18843571E+04 E0= -.18843569E+04  d E =0.169977E-02
quench:  g(F)=  0.000E+00 g(S)=  0.000E+00 dE (1.order)= 0.000E+00
 bond charge predicted
       N       E                     dE             d eps       ncg     rms          rms(c)
DAV:   1    -0.186031523953E+04   -0.70729E-03   -0.12232E-01  1568   0.361E-01    0.131E-01
RMM:   2    -0.186031545633E+04   -0.21680E-03   -0.28904E-03  1536   0.539E-02    0.102E-01
RMM:   3    -0.186031542295E+04    0.33380E-04   -0.12710E-04  1536   0.965E-03    0.743E-02
RMM:   4    -0.186031543900E+04   -0.16050E-04   -0.10388E-04  1533   0.782E-03    0.445E-02
RMM:   5    -0.186031541131E+04    0.27698E-04   -0.47037E-05  1477   0.368E-03    0.199E-02
RMM:   6    -0.186031540613E+04    0.51778E-05   -0.68905E-06  1363   0.193E-03    0.507E-03
RMM:   7    -0.186031540611E+04    0.14246E-07   -0.18864E-06  1356   0.108E-03    0.253E-03
RMM:   8    -0.186031540663E+04   -0.51581E-06   -0.27147E-07   986   0.487E-04    0.903E-04
RMM:   9    -0.186031540724E+04   -0.61332E-06   -0.10792E-07   891   0.269E-04    0.424E-04
RMM:  10    -0.186031540789E+04   -0.64565E-06   -0.70403E-08   824   0.198E-04    0.260E-04
RMM:  11    -0.186031540866E+04   -0.77423E-06   -0.10402E-07   883   0.220E-04    0.264E-04
RMM:  12    -0.186031540897E+04   -0.31012E-06   -0.28538E-08   647   0.122E-04    0.973E-05
RMM:  13    -0.186031540933E+04   -0.36093E-06   -0.27256E-08   691   0.121E-04    0.596E-05
RMM:  14    -0.186031540953E+04   -0.19227E-06   -0.96831E-09   522   0.913E-05    0.402E-05
RMM:  15    -0.186031540965E+04   -0.12017E-06   -0.42966E-09   412   0.805E-05    0.273E-05
RMM:  16    -0.186031540973E+04   -0.84823E-07   -0.40242E-09   416   0.800E-05
  40 F= -.18843616E+04 E0= -.18843614E+04  d E =-.449959E-02
quench:  g(F)=  0.000E+00 g(S)=  0.000E+00 dE (1.order)= 0.000E+00
 bond charge predicted
       N       E                     dE             d eps       ncg     rms          rms(c)
DAV:   1    -0.186031618394E+04   -0.77429E-03   -0.36046E-01  1536   0.676E-01    0.184E-01
RMM:   2    -0.186031685712E+04   -0.67318E-03   -0.88553E-03  1536   0.969E-02    0.121E-01
RMM:   3    -0.186031677910E+04    0.78021E-04   -0.53846E-04  1538   0.173E-02    0.986E-02
RMM:   4    -0.186031664434E+04    0.13475E-03   -0.21491E-04  1536   0.973E-03    0.471E-02
RMM:   5    -0.186031662816E+04    0.16184E-04   -0.79226E-05  1535   0.750E-03    0.125E-02
RMM:   6    -0.186031662689E+04    0.12662E-05   -0.79612E-06  1539   0.225E-03    0.478E-03
RMM:   7    -0.186031662668E+04    0.21745E-06   -0.19897E-06  1378   0.111E-03    0.282E-03
RMM:   8    -0.186031662710E+04   -0.42684E-06   -0.74696E-07  1255   0.716E-04    0.116E-03
RMM:   9    -0.186031662792E+04   -0.81965E-06   -0.19973E-07   954   0.354E-04    0.669E-04
RMM:  10    -0.186031662916E+04   -0.12411E-05   -0.25004E-07  1006   0.344E-04    0.363E-04
RMM:  11    -0.186031663018E+04   -0.10160E-05   -0.12622E-07   848   0.247E-04    0.236E-04
RMM:  12    -0.186031663114E+04   -0.96395E-06   -0.12655E-07   878   0.239E-04    0.110E-04
RMM:  13    -0.186031663158E+04   -0.43391E-06   -0.40357E-08   726   0.143E-04    0.695E-05
RMM:  14    -0.186031663187E+04   -0.28864E-06   -0.17931E-08   606   0.105E-04    0.539E-05
RMM:  15    -0.186031663204E+04   -0.17426E-06   -0.51188E-09   449   0.847E-05    0.306E-05
RMM:  16    -0.186031663220E+04   -0.15681E-06   -0.65847E-09   521   0.888E-05    0.208E-05
RMM:  17    -0.186031663225E+04   -0.50015E-07   -0.19135E-09   360   0.742E-05
  41 F= -.18843645E+04 E0= -.18843643E+04  d E =-.291264E-02
quench:  g(F)=  0.000E+00 g(S)=  0.000E+00 dE (1.order)= 0.000E+00
 bond charge predicted
       N       E                     dE             d eps       ncg     rms          rms(c)
DAV:   1    -0.186031728001E+04   -0.64781E-03   -0.31391E-02  1616   0.124E-01    0.579E-02
RMM:   2    -0.186031732759E+04   -0.47581E-04   -0.69952E-04  1532   0.157E-02    0.576E-02
RMM:   3    -0.186031728059E+04    0.46998E-04   -0.10839E-04  1441   0.480E-03    0.310E-02
RMM:   4    -0.186031727165E+04    0.89355E-05   -0.14658E-05  1319   0.219E-03    0.153E-02
RMM:   5    -0.186031727017E+04    0.14800E-05   -0.74319E-06  1263   0.143E-03    0.505E-03
RMM:   6    -0.186031727012E+04    0.57276E-07   -0.81197E-07  1014   0.512E-04
  42 F= -.18843646E+04 E0= -.18843645E+04  d E =-.101297E-03
quench:  g(F)=  0.000E+00 g(S)=  0.000E+00 dE (1.order)= 0.000E+00
 bond charge predicted
       N       E                     dE             d eps       ncg     rms          rms(c)
DAV:   1    -0.186031716339E+04    0.10679E-03   -0.45062E-02  1632   0.203E-01    0.506E-02
RMM:   2    -0.186031724348E+04   -0.80097E-04   -0.92294E-04  1535   0.262E-02    0.641E-02
RMM:   3    -0.186031724046E+04    0.30257E-05   -0.22160E-05  1468   0.390E-03    0.639E-02
RMM:   4    -0.186031724047E+04   -0.79744E-08   -0.11919E-05  1441   0.246E-03    0.380E-02
RMM:   5    -0.186031724140E+04   -0.93173E-06   -0.27536E-05  1483   0.353E-03    0.295E-02
RMM:   6    -0.186031723621E+04    0.51892E-05   -0.33000E-06  1222   0.106E-03    0.150E-02
RMM:   7    -0.186031723594E+04    0.27013E-06   -0.63317E-07  1077   0.648E-04    0.683E-03
RMM:   8    -0.186031723593E+04    0.41036E-08   -0.46421E-07  1009   0.503E-04
  43 F= -.18843642E+04 E0= -.18843641E+04  d E =0.356324E-03
quench:  g(F)=  0.000E+00 g(S)=  0.000E+00 dE (1.order)= 0.000E+00
 bond charge predicted
       N       E                     dE             d eps       ncg     rms          rms(c)
DAV:   1    -0.186031726360E+04   -0.27660E-04   -0.33143E-02  1648   0.174E-01    0.435E-02
RMM:   2    -0.186031732066E+04   -0.57057E-04   -0.68129E-04  1533   0.225E-02    0.547E-02
RMM:   3    -0.186031731824E+04    0.24106E-05   -0.16534E-05  1439   0.337E-03    0.554E-02
RMM:   4    -0.186031731510E+04    0.31416E-05   -0.60219E-06  1416   0.188E-03    0.270E-02
RMM:   5    -0.186031731410E+04    0.10061E-05   -0.16759E-05  1463   0.284E-03    0.175E-02
RMM:   6    -0.186031731333E+04    0.77083E-06   -0.93746E-07  1088   0.626E-04    0.120E-02
RMM:   7    -0.186031731312E+04    0.21042E-06   -0.28270E-07   959   0.434E-04    0.601E-03
RMM:   8    -0.186031731314E+04   -0.24840E-07   -0.53589E-07  1053   0.528E-04
  44 F= -.18843646E+04 E0= -.18843645E+04  d E =-.344436E-03
quench:  g(F)=  0.000E+00 g(S)=  0.000E+00 dE (1.order)= 0.000E+00
 bond charge predicted
       N       E                     dE             d eps       ncg     rms          rms(c)
DAV:   1    -0.186031556734E+04    0.17458E-02   -0.33582E-02  1568   0.184E-01    0.601E-02
RMM:   2    -0.186031563973E+04   -0.72393E-04   -0.91547E-04  1536   0.289E-02    0.701E-02
RMM:   3    -0.186031561345E+04    0.26286E-04   -0.39435E-05  1497   0.471E-03    0.537E-02
RMM:   4    -0.186031561434E+04   -0.89369E-06   -0.84967E-06  1406   0.213E-03    0.519E-02
RMM:   5    -0.186031560362E+04    0.10724E-04   -0.38808E-05  1510   0.528E-03    0.788E-03
RMM:   6    -0.186031560307E+04    0.54542E-06   -0.18883E-06  1316   0.110E-03    0.389E-03
RMM:   7    -0.186031560292E+04    0.15010E-06   -0.63233E-07  1131   0.622E-04    0.149E-03
RMM:   8    -0.186031560290E+04    0.17404E-07   -0.12817E-07   901   0.309E-04
  45 F= -.18843635E+04 E0= -.18843634E+04  d E =0.104603E-02
quench:  g(F)=  0.000E+00 g(S)=  0.000E+00 dE (1.order)= 0.000E+00
 bond charge predicted
       N       E                     dE             d eps       ncg     rms          rms(c)
DAV:   1    -0.186031717726E+04   -0.15743E-02   -0.28579E-02  1600   0.170E-01    0.555E-02
RMM:   2    -0.186031724131E+04   -0.64050E-04   -0.77639E-04  1536   0.266E-02    0.654E-02
RMM:   3    -0.186031721861E+04    0.22704E-04   -0.33805E-05  1493   0.433E-03    0.500E-02
RMM:   4    -0.186031721983E+04   -0.12208E-05   -0.71465E-06  1389   0.196E-03    0.481E-02
RMM:   5    -0.186031721232E+04    0.75104E-05   -0.33354E-05  1508   0.489E-03    0.744E-03
RMM:   6    -0.186031721187E+04    0.44987E-06   -0.15817E-06  1285   0.101E-03    0.356E-03
RMM:   7    -0.186031721174E+04    0.12503E-06   -0.53647E-07  1096   0.581E-04    0.132E-03
RMM:   8    -0.186031721169E+04    0.50888E-07   -0.92295E-08   884   0.274E-04
  46 F= -.18843645E+04 E0= -.18843644E+04  d E =-.100400E-02
quench:  g(F)=  0.000E+00 g(S)=  0.000E+00 dE (1.order)= 0.000E+00
 bond charge predicted
       N       E                     dE             d eps       ncg     rms          rms(c)
DAV:   1    -0.186031849741E+04   -0.12857E-02   -0.41113E-02  1648   0.193E-01    0.886E-02
RMM:   2    -0.186031857970E+04   -0.82292E-04   -0.10615E-03  1536   0.315E-02    0.115E-01
RMM:   3    -0.186031855309E+04    0.26617E-04   -0.30175E-05  1528   0.465E-03    0.108E-01
RMM:   4    -0.186031855615E+04   -0.30629E-05   -0.28218E-06  1302   0.114E-03    0.106E-01
RMM:   5    -0.186031853201E+04    0.24140E-04   -0.12615E-04  1529   0.925E-03    0.371E-02
RMM:   6    -0.186031852659E+04    0.54151E-05   -0.13183E-05  1455   0.279E-03    0.316E-02
RMM:   7    -0.186031852507E+04    0.15275E-05   -0.39493E-06  1398   0.159E-03    0.149E-02
RMM:   8    -0.186031852514E+04   -0.73953E-07   -0.57735E-07  1095   0.623E-04
  47 F= -.18843647E+04 E0= -.18843645E+04  d E =-.142823E-03
quench:  g(F)=  0.000E+00 g(S)=  0.000E+00 dE (1.order)= 0.000E+00
 bond charge predicted
       N       E                     dE             d eps       ncg     rms          rms(c)
DAV:   1    -0.186031724077E+04    0.12843E-02   -0.38412E-02  1600   0.186E-01    0.848E-02
RMM:   2    -0.186031732142E+04   -0.80653E-04   -0.97372E-04  1536   0.302E-02    0.110E-01
RMM:   3    -0.186031729624E+04    0.25180E-04   -0.27999E-05  1529   0.445E-03    0.103E-01
RMM:   4    -0.186031730043E+04   -0.41933E-05   -0.29943E-06  1270   0.118E-03    0.100E-01
RMM:   5    -0.186031728086E+04    0.19567E-04   -0.10078E-04  1526   0.823E-03    0.306E-02
RMM:   6    -0.186031727791E+04    0.29580E-05   -0.10094E-05  1418   0.239E-03    0.265E-02
RMM:   7    -0.186031727664E+04    0.12670E-05   -0.22697E-06  1333   0.123E-03    0.133E-02
RMM:   8    -0.186031727649E+04    0.14978E-06   -0.58990E-07  1101   0.616E-04    0.696E-03
RMM:   9    -0.186031727657E+04   -0.81855E-07   -0.90622E-07  1193   0.739E-04
  48 F= -.18843645E+04 E0= -.18843644E+04  d E =0.110987E-03
quench:  g(F)=  0.000E+00 g(S)=  0.000E+00 dE (1.order)= 0.000E+00
 bond charge predicted
       N       E                     dE             d eps       ncg     rms          rms(c)
DAV:   1    -0.186031656625E+04    0.71024E-03   -0.43900E-02  1616   0.208E-01    0.601E-02
RMM:   2    -0.186031664840E+04   -0.82156E-04   -0.91450E-04  1536   0.261E-02    0.369E-02
RMM:   3    -0.186031664025E+04    0.81546E-05   -0.55252E-05  1504   0.522E-03    0.387E-02
RMM:   4    -0.186031662422E+04    0.16029E-04   -0.74612E-06  1381   0.198E-03    0.187E-02
RMM:   5    -0.186031662192E+04    0.22983E-05   -0.10716E-05  1481   0.252E-03    0.386E-03
RMM:   6    -0.186031662184E+04    0.85463E-07   -0.79388E-07  1126   0.633E-04
  49 F= -.18843641E+04 E0= -.18843640E+04  d E =0.428009E-03
quench:  g(F)=  0.000E+00 g(S)=  0.000E+00 dE (1.order)= 0.000E+00
 bond charge predicted
       N       E                     dE             d eps       ncg     rms          rms(c)
DAV:   1    -0.186031831631E+04   -0.16944E-02   -0.14171E-01  1568   0.392E-01    0.962E-02
RMM:   2    -0.186031857624E+04   -0.25993E-03   -0.30967E-03  1536   0.533E-02    0.689E-02
RMM:   3    -0.186031855380E+04    0.22442E-04   -0.11493E-04  1534   0.895E-03    0.516E-02
RMM:   4    -0.186031855639E+04   -0.25874E-05   -0.67853E-05  1531   0.638E-03    0.315E-02
RMM:   5    -0.186031854271E+04    0.13671E-04   -0.27085E-05  1486   0.308E-03    0.172E-02
RMM:   6    -0.186031853862E+04    0.40906E-05   -0.46588E-06  1313   0.156E-03    0.382E-03
RMM:   7    -0.186031853847E+04    0.15277E-06   -0.11033E-06  1243   0.842E-04    0.205E-03
RMM:   8    -0.186031853859E+04   -0.12148E-06   -0.23106E-07   964   0.442E-04    0.691E-04
RMM:   9    -0.186031853888E+04   -0.29069E-06   -0.10989E-07   885   0.265E-04    0.422E-04
RMM:  10    -0.186031853944E+04   -0.55280E-06   -0.18047E-07   945   0.307E-04    0.252E-04
RMM:  11    -0.186031853970E+04   -0.25956E-06   -0.61756E-08   766   0.183E-04    0.186E-04
RMM:  12    -0.186031853997E+04   -0.27563E-06   -0.37255E-08   772   0.149E-04    0.107E-04
RMM:  13    -0.186031854012E+04   -0.14689E-06   -0.16080E-08   639   0.107E-04    0.502E-05
RMM:  14    -0.186031854025E+04   -0.13634E-06   -0.84566E-09   539   0.899E-05    0.369E-05
RMM:  15    -0.186031854033E+04   -0.71319E-07   -0.33494E-09   391   0.777E-05
  50 F= -.18843661E+04 E0= -.18843660E+04  d E =-.200719E-02
quench:  g(F)=  0.000E+00 g(S)=  0.000E+00 dE (1.order)= 0.000E+00
 bond charge predicted
       N       E                     dE             d eps       ncg     rms          rms(c)
DAV:   1    -0.186032012685E+04   -0.15866E-02   -0.12684E-01  1536   0.398E-01    0.965E-02
RMM:   2    -0.186032036530E+04   -0.23845E-03   -0.29502E-03  1536   0.565E-02    0.777E-02
RMM:   3    -0.186032032171E+04    0.43588E-04   -0.12423E-04  1538   0.974E-03    0.750E-02
RMM:   4    -0.186032030139E+04    0.20324E-04   -0.17807E-05  1498   0.303E-03    0.563E-02
RMM:   5    -0.186032028784E+04    0.13546E-04   -0.60040E-05  1533   0.665E-03    0.167E-02
RMM:   6    -0.186032028457E+04    0.32696E-05   -0.11427E-05  1454   0.240E-03    0.489E-03
RMM:   7    -0.186032028429E+04    0.28612E-06   -0.10114E-06  1267   0.896E-04    0.228E-03
RMM:   8    -0.186032028443E+04   -0.14441E-06   -0.53352E-07  1140   0.606E-04    0.947E-04
RMM:   9    -0.186032028484E+04   -0.41090E-06   -0.17827E-07   934   0.346E-04    0.646E-04
RMM:  10    -0.186032028563E+04   -0.78486E-06   -0.18155E-07   921   0.304E-04    0.382E-04
RMM:  11    -0.186032028628E+04   -0.65335E-06   -0.13830E-07   870   0.250E-04    0.230E-04
RMM:  12    -0.186032028677E+04   -0.48600E-06   -0.68430E-08   770   0.181E-04    0.129E-04
RMM:  13    -0.186032028710E+04   -0.33218E-06   -0.31075E-08   696   0.130E-04    0.649E-05
RMM:  14    -0.186032028726E+04   -0.16144E-06   -0.11110E-08   574   0.960E-05    0.377E-05
RMM:  15    -0.186032028742E+04   -0.16188E-06   -0.85613E-09   549   0.912E-05    0.289E-05
RMM:  16    -0.186032028747E+04   -0.51354E-07   -0.28402E-09   380   0.748E-05
  51 F= -.18843669E+04 E0= -.18843668E+04  d E =-.777030E-03
quench:  g(F)=  0.000E+00 g(S)=  0.000E+00 dE (1.order)= 0.000E+00
 bond charge predicted
       N       E                     dE             d eps       ncg     rms          rms(c)
DAV:   1    -0.186032105471E+04   -0.76728E-03   -0.36241E-02  1536   0.135E-01    0.580E-02
RMM:   2    -0.186032110005E+04   -0.45341E-04   -0.75137E-04  1527   0.163E-02    0.550E-02
RMM:   3    -0.186032106055E+04    0.39493E-04   -0.11266E-04  1436   0.479E-03    0.308E-02
RMM:   4    -0.186032105042E+04    0.10132E-04   -0.16667E-05  1336   0.233E-03    0.138E-02
RMM:   5    -0.186032104931E+04    0.11071E-05   -0.73497E-06  1254   0.142E-03    0.471E-03
RMM:   6    -0.186032104930E+04    0.14581E-07   -0.74499E-07   983   0.477E-04
  52 F= -.18843670E+04 E0= -.18843669E+04  d E =-.139216E-03
quench:  g(F)=  0.000E+00 g(S)=  0.000E+00 dE (1.order)= 0.000E+00
 bond charge predicted
       N       E                     dE             d eps       ncg     rms          rms(c)
DAV:   1    -0.186032024465E+04    0.80467E-03   -0.62588E-02  1568   0.274E-01    0.782E-02
RMM:   2    -0.186032034266E+04   -0.98007E-04   -0.13421E-03  1535   0.359E-02    0.448E-02
RMM:   3    -0.186032032862E+04    0.14032E-04   -0.46230E-05  1504   0.581E-03    0.329E-02
RMM:   4    -0.186032033085E+04   -0.22246E-05   -0.28073E-05  1464   0.333E-03    0.340E-02
RMM:   5    -0.186032031894E+04    0.11906E-04   -0.23014E-05  1488   0.349E-03    0.418E-03
RMM:   6    -0.186032031861E+04    0.32912E-06   -0.13564E-06  1241   0.935E-04    0.210E-03
RMM:   7    -0.186032031854E+04    0.77314E-07   -0.34809E-07   997   0.480E-04
  53 F= -.18843674E+04 E0= -.18843673E+04  d E =-.325112E-03
quench:  g(F)=  0.000E+00 g(S)=  0.000E+00 dE (1.order)= 0.000E+00
 bond charge predicted
       N       E                     dE             d eps       ncg     rms          rms(c)
DAV:   1    -0.186032094466E+04   -0.62605E-03   -0.46418E-02  1568   0.236E-01    0.670E-02
RMM:   2    -0.186032101795E+04   -0.73291E-04   -0.99570E-04  1535   0.308E-02    0.390E-02
RMM:   3    -0.186032100864E+04    0.93107E-05   -0.36847E-05  1492   0.503E-03    0.284E-02
RMM:   4    -0.186032100904E+04   -0.40082E-06   -0.20276E-05  1445   0.281E-03    0.287E-02
RMM:   5    -0.186032100191E+04    0.71315E-05   -0.17185E-05  1482   0.305E-03    0.347E-03
RMM:   6    -0.186032100187E+04    0.38664E-07   -0.90109E-07  1157   0.768E-04
  54 F= -.18843671E+04 E0= -.18843670E+04  d E =0.223896E-03
quench:  g(F)=  0.000E+00 g(S)=  0.000E+00 dE (1.order)= 0.000E+00
 bond charge predicted
       N       E                     dE             d eps       ncg     rms          rms(c)
DAV:   1    -0.186032149648E+04   -0.49457E-03   -0.46435E-02  1632   0.209E-01    0.867E-02
RMM:   2    -0.186032156443E+04   -0.67949E-04   -0.99152E-04  1534   0.317E-02    0.762E-02
RMM:   3    -0.186032154915E+04    0.15277E-04   -0.52689E-05  1503   0.590E-03    0.506E-02
RMM:   4    -0.186032156150E+04   -0.12353E-04   -0.64626E-05  1505   0.575E-03    0.458E-02
RMM:   5    -0.186032153118E+04    0.30327E-04   -0.21182E-05  1448   0.272E-03    0.744E-03
RMM:   6    -0.186032153166E+04   -0.48299E-06   -0.23596E-06  1286   0.123E-03    0.355E-03
RMM:   7    -0.186032153195E+04   -0.29140E-06   -0.63251E-07  1159   0.694E-04    0.175E-03
RMM:   8    -0.186032153251E+04   -0.56390E-06   -0.20250E-07   947   0.397E-04    0.522E-04
RMM:   9    -0.186032153303E+04   -0.51963E-06   -0.67388E-08   832   0.204E-04    0.338E-04
RMM:  10    -0.186032153406E+04   -0.10297E-05   -0.14784E-07   914   0.271E-04    0.173E-04
RMM:  11    -0.186032153445E+04   -0.38861E-06   -0.41682E-08   702   0.152E-04    0.127E-04
RMM:  12    -0.186032153490E+04   -0.44552E-06   -0.32699E-08   708   0.133E-04    0.562E-05
RMM:  13    -0.186032153511E+04   -0.21131E-06   -0.14166E-08   579   0.993E-05    0.369E-05
RMM:  14    -0.186032153530E+04   -0.19521E-06   -0.99876E-09   521   0.906E-05    0.283E-05
RMM:  15    -0.186032153537E+04   -0.63927E-07   -0.30441E-09   374   0.764E-05
  55 F= -.18843636E+04 E0= -.18843635E+04  d E =0.358787E-02
quench:  g(F)=  0.000E+00 g(S)=  0.000E+00 dE (1.order)= 0.000E+00
 bond charge predicted
       N       E                     dE             d eps       ncg     rms          rms(c)
DAV:   1    -0.186032100619E+04    0.52911E-03   -0.43409E-02  1600   0.203E-01    0.839E-02
RMM:   2    -0.186032107087E+04   -0.64675E-04   -0.92503E-04  1534   0.305E-02    0.735E-02
RMM:   3    -0.186032105718E+04    0.13687E-04   -0.50008E-05  1500   0.570E-03    0.485E-02
RMM:   4    -0.186032106965E+04   -0.12465E-04   -0.59996E-05  1505   0.554E-03    0.434E-02
RMM:   5    -0.186032104235E+04    0.27301E-04   -0.19094E-05  1440   0.257E-03    0.715E-03
RMM:   6    -0.186032104272E+04   -0.37931E-06   -0.20992E-06  1271   0.116E-03    0.342E-03
RMM:   7    -0.186032104273E+04   -0.55006E-08   -0.58703E-07  1140   0.671E-04
  56 F= -.18843671E+04 E0= -.18843670E+04  d E =-.352512E-02
quench:  g(F)=  0.000E+00 g(S)=  0.000E+00 dE (1.order)= 0.000E+00
 bond charge predicted
       N       E                     dE             d eps       ncg     rms          rms(c)
DAV:   1    -0.186032092276E+04    0.11997E-03   -0.53986E-02  1632   0.262E-01    0.868E-02
RMM:   2    -0.186032100973E+04   -0.86971E-04   -0.12985E-03  1536   0.371E-02    0.362E-02
RMM:   3    -0.186032099342E+04    0.16304E-04   -0.64639E-05  1516   0.693E-03    0.294E-02
RMM:   4    -0.186032098481E+04    0.86173E-05   -0.20209E-05  1471   0.299E-03    0.195E-02
RMM:   5    -0.186032097876E+04    0.60431E-05   -0.17509E-05  1490   0.313E-03    0.438E-03
RMM:   6    -0.186032097833E+04    0.43254E-06   -0.12504E-06  1253   0.846E-04    0.243E-03
RMM:   7    -0.186032097818E+04    0.15141E-06   -0.40602E-07  1088   0.524E-04    0.134E-03
RMM:   8    -0.186032097821E+04   -0.29933E-07   -0.23994E-07   968   0.411E-04
  57 F= -.18843657E+04 E0= -.18843656E+04  d E =0.134724E-02
quench:  g(F)=  0.000E+00 g(S)=  0.000E+00 dE (1.order)= 0.000E+00
 bond charge predicted
       N       E                     dE             d eps       ncg     rms          rms(c)
DAV:   1    -0.186032101039E+04   -0.32209E-04   -0.50323E-02  1648   0.254E-01    0.837E-02
RMM:   2    -0.186032109279E+04   -0.82399E-04   -0.12123E-03  1536   0.358E-02    0.349E-02
RMM:   3    -0.186032107787E+04    0.14918E-04   -0.60743E-05  1515   0.669E-03    0.285E-02
RMM:   4    -0.186032106983E+04    0.80399E-05   -0.18656E-05  1466   0.287E-03    0.186E-02
RMM:   5    -0.186032106402E+04    0.58087E-05   -0.16358E-05  1489   0.302E-03    0.421E-03
RMM:   6    -0.186032106344E+04    0.57959E-06   -0.11533E-06  1242   0.814E-04    0.232E-03
RMM:   7    -0.186032106309E+04    0.34695E-06   -0.36504E-07  1064   0.501E-04    0.129E-03
RMM:   8    -0.186032106293E+04    0.16457E-06   -0.21754E-07   944   0.395E-04    0.498E-04
RMM:   9    -0.186032106303E+04   -0.10179E-06   -0.63264E-08   821   0.203E-04    0.308E-04
RMM:  10    -0.186032106320E+04   -0.17464E-06   -0.11520E-07   892   0.251E-04    0.147E-04
RMM:  11    -0.186032106334E+04   -0.13180E-06   -0.31924E-08   699   0.141E-04    0.100E-04
RMM:  12    -0.186032106350E+04   -0.16400E-06   -0.22825E-08   709   0.124E-04    0.525E-05
RMM:  13    -0.186032106361E+04   -0.10541E-06   -0.91192E-09   569   0.930E-05    0.366E-05
RMM:  14    -0.186032106369E+04   -0.85929E-07   -0.40191E-09   412   0.801E-05
  58 F= -.18843671E+04 E0= -.18843670E+04  d E =-.132170E-02
quench:  g(F)=  0.000E+00 g(S)=  0.000E+00 dE (1.order)= 0.000E+00
 bond charge predicted
       N       E                     dE             d eps       ncg     rms          rms(c)
DAV:   1    -0.186031963324E+04    0.14304E-02   -0.31311E-02  1536   0.166E-01    0.780E-02
RMM:   2    -0.186031967360E+04   -0.40351E-04   -0.68876E-04  1535   0.255E-02    0.611E-02
RMM:   3    -0.186031966465E+04    0.89442E-05   -0.50501E-05  1495   0.549E-03    0.479E-02
RMM:   4    -0.186031966705E+04   -0.23980E-05   -0.41638E-05  1485   0.417E-03    0.310E-02
RMM:   5    -0.186031965363E+04    0.13419E-04   -0.16659E-05  1437   0.251E-03    0.852E-03
RMM:   6    -0.186031965318E+04    0.45453E-06   -0.19667E-06  1234   0.111E-03    0.256E-03
RMM:   7    -0.186031965325E+04   -0.79031E-07   -0.33787E-07   990   0.489E-04
  59 F= -.18843676E+04 E0= -.18843675E+04  d E =-.559805E-03
quench:  g(F)=  0.000E+00 g(S)=  0.000E+00 dE (1.order)= 0.000E+00
 bond charge predicted
       N       E                     dE             d eps       ncg     rms          rms(c)
DAV:   1    -0.186032071310E+04   -0.10599E-02   -0.99960E-02  1536   0.347E-01    0.876E-02
RMM:   2    -0.186032090709E+04   -0.19399E-03   -0.24401E-03  1536   0.500E-02    0.656E-02
RMM:   3    -0.186032088551E+04    0.21578E-04   -0.94730E-05  1537   0.847E-03    0.454E-02
RMM:   4    -0.186032088903E+04   -0.35212E-05   -0.61707E-05  1531   0.660E-03    0.369E-02
RMM:   5    -0.186032087310E+04    0.15927E-04   -0.26239E-05  1496   0.325E-03    0.101E-02
RMM:   6    -0.186032087177E+04    0.13292E-05   -0.32677E-06  1364   0.144E-03    0.436E-03
RMM:   7    -0.186032087161E+04    0.16108E-06   -0.93824E-07  1222   0.809E-04    0.205E-03
RMM:   8    -0.186032087172E+04   -0.11106E-06   -0.22355E-07   956   0.454E-04    0.662E-04
RMM:   9    -0.186032087194E+04   -0.21873E-06   -0.74168E-08   876   0.234E-04    0.414E-04
RMM:  10    -0.186032087233E+04   -0.39094E-06   -0.10572E-07   893   0.248E-04    0.239E-04
RMM:  11    -0.186032087259E+04   -0.25668E-06   -0.54136E-08   761   0.167E-04    0.149E-04
RMM:  12    -0.186032087282E+04   -0.23261E-06   -0.31825E-08   760   0.136E-04    0.994E-05
RMM:  13    -0.186032087295E+04   -0.12774E-06   -0.13802E-08   619   0.100E-04    0.463E-05
RMM:  14    -0.186032087306E+04   -0.11134E-06   -0.57797E-09   488   0.849E-05    0.280E-05
RMM:  15    -0.186032087311E+04   -0.50757E-07   -0.25592E-09   370   0.763E-05
  60 F= -.18843683E+04 E0= -.18843682E+04  d E =-.693044E-03
quench:  g(F)=  0.000E+00 g(S)=  0.000E+00 dE (1.order)= 0.000E+00
 bond charge predicted
       N       E                     dE             d eps       ncg     rms          rms(c)
DAV:   1    -0.186031983713E+04    0.10359E-02   -0.66581E-01  1536   0.937E-01    0.217E-01
RMM:   2    -0.186032108094E+04   -0.12438E-02   -0.14160E-02  1536   0.125E-01    0.136E-01
RMM:   3    -0.186032093062E+04    0.15032E-03   -0.73396E-04  1541   0.224E-02    0.126E-01
RMM:   4    -0.186032074730E+04    0.18332E-03   -0.13922E-04  1533   0.857E-03    0.599E-02
RMM:   5    -0.186032072212E+04    0.25174E-04   -0.18663E-04  1535   0.120E-02    0.134E-02
RMM:   6    -0.186032071981E+04    0.23119E-05   -0.11325E-05  1519   0.256E-03    0.684E-03
RMM:   7    -0.186032071910E+04    0.70983E-06   -0.18479E-06  1362   0.112E-03    0.355E-03
RMM:   8    -0.186032071922E+04   -0.11334E-06   -0.12279E-06  1349   0.932E-04    0.133E-03
RMM:   9    -0.186032072000E+04   -0.78422E-06   -0.37046E-07  1093   0.461E-04    0.928E-04
RMM:  10    -0.186032072212E+04   -0.21217E-05   -0.69952E-07  1249   0.557E-04    0.510E-04
RMM:  11    -0.186032072320E+04   -0.10799E-05   -0.15341E-07   913   0.282E-04    0.348E-04
RMM:  12    -0.186032072450E+04   -0.12968E-05   -0.14681E-07   867   0.250E-04    0.139E-04
RMM:  13    -0.186032072502E+04   -0.52671E-06   -0.48793E-08   765   0.156E-04    0.947E-05
RMM:  14    -0.186032072554E+04   -0.51581E-06   -0.28532E-08   691   0.128E-04    0.610E-05
RMM:  15    -0.186032072577E+04   -0.23158E-06   -0.13548E-08   619   0.987E-05    0.365E-05
RMM:  16    -0.186032072595E+04   -0.17829E-06   -0.79902E-09   549   0.886E-05    0.214E-05
RMM:  17    -0.186032072602E+04   -0.66022E-07   -0.31754E-09   397   0.761E-05
  61 F= -.18843705E+04 E0= -.18843704E+04  d E =-.215481E-02
quench:  g(F)=  0.000E+00 g(S)=  0.000E+00 dE (1.order)= 0.000E+00
 bond charge predicted
       N       E                     dE             d eps       ncg     rms          rms(c)
DAV:   1    -0.186032152741E+04   -0.80146E-03   -0.36500E-02  1632   0.136E-01    0.584E-02
RMM:   2    -0.186032156906E+04   -0.41649E-04   -0.76052E-04  1530   0.167E-02    0.517E-02
RMM:   3    -0.186032153619E+04    0.32872E-04   -0.11124E-04  1439   0.490E-03    0.341E-02
RMM:   4    -0.186032152543E+04    0.10760E-04   -0.14183E-05  1327   0.216E-03    0.176E-02
RMM:   5    -0.186032152365E+04    0.17729E-05   -0.96307E-06  1306   0.166E-03    0.520E-03
RMM:   6    -0.186032152356E+04    0.96203E-07   -0.87293E-07  1015   0.518E-04
  62 F= -.18843707E+04 E0= -.18843706E+04  d E =-.260052E-03
quench:  g(F)=  0.000E+00 g(S)=  0.000E+00 dE (1.order)= 0.000E+00
 bond charge predicted
       N       E                     dE             d eps       ncg     rms          rms(c)
DAV:   1    -0.186032134328E+04    0.18038E-03   -0.67125E-02  1568   0.297E-01    0.763E-02
RMM:   2    -0.186032144909E+04   -0.10581E-03   -0.13900E-03  1536   0.390E-02    0.345E-02
RMM:   3    -0.186032142980E+04    0.19281E-04   -0.48895E-05  1503   0.654E-03    0.221E-02
RMM:   4    -0.186032142480E+04    0.50067E-05   -0.29546E-05  1491   0.441E-03    0.104E-02
RMM:   5    -0.186032142394E+04    0.85391E-06   -0.50722E-06  1384   0.153E-03    0.695E-03
RMM:   6    -0.186032142308E+04    0.86568E-06   -0.72171E-07  1075   0.600E-04    0.238E-03
RMM:   7    -0.186032142296E+04    0.11509E-06   -0.34857E-07  1017   0.495E-04    0.115E-03
RMM:   8    -0.186032142299E+04   -0.29511E-07   -0.10952E-07   888   0.299E-04
  63 F= -.18843700E+04 E0= -.18843699E+04  d E =0.726588E-03
quench:  g(F)=  0.000E+00 g(S)=  0.000E+00 dE (1.order)= 0.000E+00
 bond charge predicted
       N       E                     dE             d eps       ncg     rms          rms(c)
DAV:   1    -0.186032152249E+04   -0.99522E-04   -0.48242E-02  1616   0.251E-01    0.647E-02
RMM:   2    -0.186032159827E+04   -0.75784E-04   -0.10027E-03  1536   0.329E-02    0.295E-02
RMM:   3    -0.186032158497E+04    0.13302E-04   -0.36750E-05  1498   0.558E-03    0.198E-02
RMM:   4    -0.186032158396E+04    0.10069E-05   -0.18502E-05  1475   0.327E-03    0.155E-02
RMM:   5    -0.186032158020E+04    0.37608E-05   -0.73693E-06  1433   0.188E-03    0.529E-03
RMM:   6    -0.186032157978E+04    0.42243E-06   -0.46885E-07  1032   0.572E-04    0.193E-03
RMM:   7    -0.186032157965E+04    0.12276E-06   -0.24504E-07   947   0.420E-04    0.930E-04
RMM:   8    -0.186032157962E+04    0.30544E-07   -0.75439E-08   878   0.256E-04
  64 F= -.18843707E+04 E0= -.18843706E+04  d E =-.668481E-03
quench:  g(F)=  0.000E+00 g(S)=  0.000E+00 dE (1.order)= 0.000E+00
 bond charge predicted
       N       E                     dE             d eps       ncg     rms          rms(c)
DAV:   1    -0.186031970170E+04    0.18780E-02   -0.47451E-02  1616   0.223E-01    0.897E-02
RMM:   2    -0.186031977040E+04   -0.68705E-04   -0.10034E-03  1534   0.325E-02    0.725E-02
RMM:   3    -0.186031975528E+04    0.15122E-04   -0.60605E-05  1498   0.628E-03    0.638E-02
RMM:   4    -0.186031974757E+04    0.77126E-05   -0.28314E-05  1469   0.350E-03    0.401E-02
RMM:   5    -0.186031973756E+04    0.10009E-04   -0.26628E-05  1490   0.380E-03    0.111E-02
RMM:   6    -0.186031973586E+04    0.16989E-05   -0.40067E-06  1254   0.142E-03    0.305E-03
RMM:   7    -0.186031973579E+04    0.75335E-07   -0.64696E-07  1175   0.690E-04
  65 F= -.18843700E+04 E0= -.18843699E+04  d E =0.637627E-03
quench:  g(F)=  0.000E+00 g(S)=  0.000E+00 dE (1.order)= 0.000E+00
 bond charge predicted
       N       E                     dE             d eps       ncg     rms          rms(c)
DAV:   1    -0.186032145918E+04   -0.17233E-02   -0.41292E-02  1616   0.208E-01    0.833E-02
RMM:   2    -0.186032151999E+04   -0.60808E-04   -0.87041E-04  1534   0.301E-02    0.674E-02
RMM:   3    -0.186032150699E+04    0.13004E-04   -0.52703E-05  1493   0.582E-03    0.595E-02
RMM:   4    -0.186032150093E+04    0.60596E-05   -0.23992E-05  1463   0.317E-03    0.376E-02
RMM:   5    -0.186032149272E+04    0.82065E-05   -0.23877E-05  1486   0.356E-03    0.106E-02
RMM:   6    -0.186032149120E+04    0.15191E-05   -0.34415E-06  1237   0.131E-03    0.282E-03
RMM:   7    -0.186032149110E+04    0.10504E-06   -0.50928E-07  1100   0.625E-04    0.165E-03
RMM:   8    -0.186032149108E+04    0.18292E-07   -0.18039E-07   924   0.376E-04
  66 F= -.18843707E+04 E0= -.18843706E+04  d E =-.654283E-03
quench:  g(F)=  0.000E+00 g(S)=  0.000E+00 dE (1.order)= 0.000E+00
 bond charge predicted
       N       E                     dE             d eps       ncg     rms          rms(c)
DAV:   1    -0.186032202431E+04   -0.53322E-03   -0.43665E-02  1648   0.211E-01    0.900E-02
RMM:   2    -0.186032209890E+04   -0.74591E-04   -0.11165E-03  1536   0.336E-02    0.850E-02
RMM:   3    -0.186032207408E+04    0.24822E-04   -0.56453E-05  1495   0.594E-03    0.605E-02
RMM:   4    -0.186032208360E+04   -0.95167E-05   -0.59886E-05  1498   0.566E-03    0.527E-02
RMM:   5    -0.186032205327E+04    0.30332E-04   -0.31282E-05  1483   0.382E-03    0.691E-03
RMM:   6    -0.186032205389E+04   -0.61945E-06   -0.32991E-06  1324   0.142E-03    0.375E-03
[...]
 bond charge predicted
       N       E                     dE             d eps       ncg     rms          rms(c)
DAV:   1    -0.186033385974E+04   -0.59805E-03   -0.37423E-02  1536   0.143E-01    0.605E-02
RMM:   2    -0.186033390950E+04   -0.49754E-04   -0.81761E-04  1534   0.183E-02    0.561E-02
RMM:   3    -0.186033386776E+04    0.41731E-04   -0.11700E-04  1455   0.521E-03    0.340E-02
RMM:   4    -0.186033385651E+04    0.11254E-04   -0.15328E-05  1354   0.230E-03    0.173E-02
RMM:   5    -0.186033385468E+04    0.18279E-05   -0.91315E-06  1332   0.165E-03    0.549E-03
RMM:   6    -0.186033385463E+04    0.56491E-07   -0.95948E-07  1031   0.553E-04
 182 F= -.18843918E+04 E0= -.18843917E+04  d E =-.354731E-04
quench:  g(F)=  0.000E+00 g(S)=  0.000E+00 dE (1.order)= 0.000E+00
 bond charge predicted
       N       E                     dE             d eps       ncg     rms          rms(c)
DAV:   1    -0.186033474291E+04   -0.88823E-03   -0.61860E-02  1648   0.300E-01    0.620E-02
RMM:   2    -0.186033484247E+04   -0.99557E-04   -0.12301E-03  1536   0.391E-02    0.372E-02
RMM:   3    -0.186033482883E+04    0.13633E-04   -0.41692E-05  1527   0.636E-03    0.220E-02
RMM:   4    -0.186033482404E+04    0.47936E-05   -0.24442E-05  1523   0.452E-03    0.631E-03
RMM:   5    -0.186033482388E+04    0.16096E-06   -0.21869E-06  1358   0.120E-03    0.281E-03
RMM:   6    -0.186033482379E+04    0.89349E-07   -0.51944E-07  1165   0.662E-04
 183 F= -.18843918E+04 E0= -.18843917E+04  d E =0.217633E-04
quench:  g(F)=  0.000E+00 g(S)=  0.000E+00 dE (1.order)= 0.000E+00
 bond charge predicted
       N       E                     dE             d eps       ncg     rms          rms(c)
DAV:   1    -0.186033390239E+04    0.92149E-03   -0.51958E-02  1664   0.274E-01    0.568E-02
RMM:   2    -0.186033398635E+04   -0.83951E-04   -0.10330E-03  1536   0.357E-02    0.340E-02
RMM:   3    -0.186033397538E+04    0.10961E-04   -0.35923E-05  1526   0.582E-03    0.202E-02
RMM:   4    -0.186033397224E+04    0.31486E-05   -0.21057E-05  1521   0.414E-03    0.703E-03
RMM:   5    -0.186033397202E+04    0.21966E-06   -0.21959E-06  1327   0.104E-03    0.555E-03
RMM:   6    -0.186033397157E+04    0.44263E-06   -0.52376E-07  1033   0.512E-04    0.213E-03
RMM:   7    -0.186033397146E+04    0.11112E-06   -0.25494E-07   977   0.471E-04    0.990E-04
RMM:   8    -0.186033397146E+04    0.68394E-09   -0.67092E-08   886   0.261E-04
 184 F= -.18843919E+04 E0= -.18843918E+04  d E =-.586073E-04
quench:  g(F)=  0.000E+00 g(S)=  0.000E+00 dE (1.order)= 0.000E+00
 bond charge predicted
       N       E                     dE             d eps       ncg     rms          rms(c)
DAV:   1    -0.186033074093E+04    0.32305E-02   -0.44912E-02  1600   0.215E-01    0.956E-02
RMM:   2    -0.186033080267E+04   -0.61741E-04   -0.10497E-03  1536   0.331E-02    0.724E-02
RMM:   3    -0.186033078417E+04    0.18504E-04   -0.61121E-05  1513   0.660E-03    0.570E-02
RMM:   4    -0.186033079173E+04   -0.75655E-05   -0.52339E-05  1493   0.466E-03    0.407E-02
RMM:   5    -0.186033076889E+04    0.22843E-04   -0.30930E-05  1484   0.361E-03    0.110E-02
RMM:   6    -0.186033076769E+04    0.11962E-05   -0.32526E-06  1285   0.142E-03    0.317E-03
RMM:   7    -0.186033076776E+04   -0.62573E-07   -0.76415E-07  1216   0.750E-04
 185 F= -.18843900E+04 E0= -.18843900E+04  d E =0.182982E-02
quench:  g(F)=  0.000E+00 g(S)=  0.000E+00 dE (1.order)= 0.000E+00
 bond charge predicted
       N       E                     dE             d eps       ncg     rms          rms(c)
DAV:   1    -0.186033382428E+04   -0.30566E-02   -0.40965E-02  1632   0.205E-01    0.911E-02
RMM:   2    -0.186033388223E+04   -0.57954E-04   -0.95789E-04  1536   0.316E-02    0.692E-02
RMM:   3    -0.186033386576E+04    0.16473E-04   -0.55390E-05  1512   0.627E-03    0.548E-02
RMM:   4    -0.186033387270E+04   -0.69434E-05   -0.46197E-05  1488   0.437E-03    0.388E-02
RMM:   5    -0.186033385248E+04    0.20220E-04   -0.28260E-05  1477   0.346E-03    0.108E-02
RMM:   6    -0.186033385122E+04    0.12589E-05   -0.29771E-06  1265   0.136E-03    0.298E-03
RMM:   7    -0.186033385109E+04    0.12699E-06   -0.66163E-07  1183   0.703E-04    0.185E-03
RMM:   8    -0.186033385114E+04   -0.41357E-07   -0.14726E-07   921   0.364E-04
 186 F= -.18843918E+04 E0= -.18843917E+04  d E =-.179019E-02
quench:  g(F)=  0.000E+00 g(S)=  0.000E+00 dE (1.order)= 0.000E+00
 bond charge predicted
       N       E                     dE             d eps       ncg     rms          rms(c)
DAV:   1    -0.186033566798E+04   -0.18169E-02   -0.41279E-02  1648   0.200E-01    0.826E-02
RMM:   2    -0.186033572882E+04   -0.60844E-04   -0.96594E-04  1536   0.316E-02    0.726E-02
RMM:   3    -0.186033571270E+04    0.16117E-04   -0.49608E-05  1521   0.582E-03    0.489E-02
RMM:   4    -0.186033572689E+04   -0.14184E-04   -0.65197E-05  1523   0.581E-03    0.447E-02
RMM:   5    -0.186033569673E+04    0.30155E-04   -0.23245E-05  1453   0.279E-03    0.757E-03
RMM:   6    -0.186033569707E+04   -0.33903E-06   -0.23239E-06  1325   0.126E-03    0.358E-03
RMM:   7    -0.186033569755E+04   -0.47799E-06   -0.73236E-07  1181   0.738E-04    0.187E-03
RMM:   8    -0.186033569836E+04   -0.80698E-06   -0.24264E-07   972   0.428E-04    0.550E-04
RMM:   9    -0.186033569904E+04   -0.68398E-06   -0.71446E-08   832   0.209E-04    0.376E-04
RMM:  10    -0.186033570051E+04   -0.14699E-05   -0.22000E-07   964   0.322E-04    0.195E-04
RMM:  11    -0.186033570104E+04   -0.52818E-06   -0.57759E-08   749   0.173E-04    0.140E-04
RMM:  12    -0.186033570161E+04   -0.56913E-06   -0.44176E-08   748   0.150E-04    0.666E-05
RMM:  13    -0.186033570192E+04   -0.31848E-06   -0.22371E-08   658   0.113E-04    0.446E-05
RMM:  14    -0.186033570214E+04   -0.21230E-06   -0.11491E-08   534   0.922E-05    0.309E-05
RMM:  15    -0.186033570226E+04   -0.11791E-06   -0.56970E-09   439   0.823E-05    0.185E-05
RMM:  16    -0.186033570231E+04   -0.51528E-07   -0.32139E-09   390   0.766E-05
 187 F= -.18843915E+04 E0= -.18843914E+04  d E =0.349248E-03
quench:  g(F)=  0.000E+00 g(S)=  0.000E+00 dE (1.order)= 0.000E+00
 bond charge predicted
       N       E                     dE             d eps       ncg     rms          rms(c)
DAV:   1    -0.186033385794E+04    0.18443E-02   -0.40050E-02  1616   0.197E-01    0.814E-02
RMM:   2    -0.186033391954E+04   -0.61595E-04   -0.93507E-04  1536   0.311E-02    0.712E-02
RMM:   3    -0.186033390484E+04    0.14694E-04   -0.48471E-05  1521   0.576E-03    0.476E-02
RMM:   4    -0.186033392028E+04   -0.15440E-04   -0.62471E-05  1523   0.569E-03    0.434E-02
RMM:   5    -0.186033389193E+04    0.28354E-04   -0.21891E-05  1444   0.269E-03    0.746E-03
RMM:   6    -0.186033389186E+04    0.72323E-07   -0.21669E-06  1316   0.121E-03    0.352E-03
RMM:   7    -0.186033389179E+04    0.64465E-07   -0.70184E-07  1176   0.725E-04
 188 F= -.18843919E+04 E0= -.18843918E+04  d E =-.362426E-03
quench:  g(F)=  0.000E+00 g(S)=  0.000E+00 dE (1.order)= 0.000E+00
 bond charge predicted
       N       E                     dE             d eps       ncg     rms          rms(c)
DAV:   1    -0.186033259905E+04    0.12928E-02   -0.47107E-02  1648   0.249E-01    0.705E-02
RMM:   2    -0.186033270071E+04   -0.10166E-03   -0.11174E-03  1536   0.347E-02    0.523E-02
RMM:   3    -0.186033266863E+04    0.32085E-04   -0.92879E-05  1533   0.673E-03    0.416E-02
RMM:   4    -0.186033264770E+04    0.20931E-04   -0.14450E-05  1513   0.305E-03    0.200E-02
RMM:   5    -0.186033264392E+04    0.37748E-05   -0.17071E-05  1520   0.324E-03    0.648E-03
RMM:   6    -0.186033264366E+04    0.26415E-06   -0.21458E-06  1328   0.108E-03    0.225E-03
RMM:   7    -0.186033264374E+04   -0.87981E-07   -0.35725E-07  1034   0.502E-04
 189 F= -.18843911E+04 E0= -.18843910E+04  d E =0.730199E-03
quench:  g(F)=  0.000E+00 g(S)=  0.000E+00 dE (1.order)= 0.000E+00
 bond charge predicted
       N       E                     dE             d eps       ncg     rms          rms(c)
DAV:   1    -0.186033349085E+04   -0.84719E-03   -0.99253E-02  1536   0.368E-01    0.858E-02
RMM:   2    -0.186033367088E+04   -0.18003E-03   -0.22784E-03  1536   0.521E-02    0.467E-02
RMM:   3    -0.186033365020E+04    0.20679E-04   -0.10509E-04  1538   0.850E-03    0.314E-02
RMM:   4    -0.186033365297E+04   -0.27707E-05   -0.46709E-05  1529   0.525E-03    0.281E-02
RMM:   5    -0.186033363928E+04    0.13687E-04   -0.17876E-05  1511   0.286E-03    0.713E-03
RMM:   6    -0.186033363877E+04    0.51237E-06   -0.16575E-06  1245   0.105E-03    0.284E-03
RMM:   7    -0.186033363851E+04    0.25510E-06   -0.76179E-07  1291   0.741E-04    0.151E-03
RMM:   8    -0.186033363851E+04    0.17026E-08   -0.17649E-07   938   0.382E-04
 190 F= -.18843924E+04 E0= -.18843923E+04  d E =-.130890E-02
quench:  g(F)=  0.000E+00 g(S)=  0.000E+00 dE (1.order)= 0.000E+00
 bond charge predicted
       N       E                     dE             d eps       ncg     rms          rms(c)
DAV:   1    -0.186033313474E+04    0.50377E-03   -0.36527E-01  1536   0.734E-01    0.142E-01
RMM:   2    -0.186033379681E+04   -0.66206E-03   -0.77656E-03  1536   0.991E-02    0.780E-02
RMM:   3    -0.186033374300E+04    0.53801E-04   -0.26706E-04  1548   0.157E-02    0.697E-02
RMM:   4    -0.186033370183E+04    0.41176E-04   -0.65984E-05  1528   0.594E-03    0.422E-02
RMM:   5    -0.186033368536E+04    0.16467E-04   -0.95257E-05  1535   0.865E-03    0.104E-02
RMM:   6    -0.186033368466E+04    0.69740E-06   -0.55224E-06  1492   0.191E-03    0.451E-03
RMM:   7    -0.186033368504E+04   -0.37641E-06   -0.11763E-06  1342   0.947E-04    0.231E-03
RMM:   8    -0.186033368623E+04   -0.11852E-05   -0.44999E-07  1134   0.620E-04    0.875E-04
RMM:   9    -0.186033368753E+04   -0.13049E-05   -0.19441E-07   940   0.361E-04    0.545E-04
RMM:  10    -0.186033368935E+04   -0.18156E-05   -0.21244E-07   968   0.313E-04    0.284E-04
RMM:  11    -0.186033369082E+04   -0.14727E-05   -0.16427E-07   882   0.264E-04    0.152E-04
RMM:  12    -0.186033369172E+04   -0.89918E-06   -0.90261E-08   801   0.192E-04    0.100E-04
RMM:  13    -0.186033369216E+04   -0.43921E-06   -0.36688E-08   676   0.132E-04    0.531E-05
RMM:  14    -0.186033369244E+04   -0.28611E-06   -0.18841E-08   618   0.106E-04    0.355E-05
RMM:  15    -0.186033369260E+04   -0.15961E-06   -0.76223E-09   490   0.886E-05    0.200E-05
RMM:  16    -0.186033369268E+04   -0.74055E-07   -0.47387E-09   438   0.809E-05
 191 F= -.18843931E+04 E0= -.18843930E+04  d E =-.658013E-03
quench:  g(F)=  0.000E+00 g(S)=  0.000E+00 dE (1.order)= 0.000E+00
 bond charge predicted
       N       E                     dE             d eps       ncg     rms          rms(c)
DAV:   1    -0.186033440766E+04   -0.71505E-03   -0.36989E-02  1552   0.141E-01    0.600E-02
RMM:   2    -0.186033445586E+04   -0.48207E-04   -0.80398E-04  1534   0.180E-02    0.554E-02
RMM:   3    -0.186033441504E+04    0.40821E-04   -0.11564E-04  1451   0.514E-03    0.333E-02
RMM:   4    -0.186033440393E+04    0.11114E-04   -0.15433E-05  1353   0.229E-03    0.167E-02
RMM:   5    -0.186033440212E+04    0.18044E-05   -0.87935E-06  1316   0.161E-03    0.532E-03
RMM:   6    -0.186033440203E+04    0.99521E-07   -0.90289E-07  1018   0.534E-04
 192 F= -.18843932E+04 E0= -.18843931E+04  d E =-.117836E-03
quench:  g(F)=  0.000E+00 g(S)=  0.000E+00 dE (1.order)= 0.000E+00
 bond charge predicted
       N       E                     dE             d eps       ncg     rms          rms(c)
DAV:   1    -0.186033343822E+04    0.96390E-03   -0.64622E-02  1568   0.307E-01    0.632E-02
RMM:   2    -0.186033354465E+04   -0.10643E-03   -0.12780E-03  1536   0.389E-02    0.321E-02
RMM:   3    -0.186033353512E+04    0.95332E-05   -0.60312E-05  1521   0.651E-03    0.329E-02
RMM:   4    -0.186033352205E+04    0.13066E-04   -0.11786E-05  1468   0.250E-03    0.158E-02
RMM:   5    -0.186033351963E+04    0.24254E-05   -0.17451E-05  1513   0.352E-03    0.374E-03
RMM:   6    -0.186033351953E+04    0.95402E-07   -0.75017E-07  1210   0.694E-04
 193 F= -.18843928E+04 E0= -.18843927E+04  d E =0.391745E-03
quench:  g(F)=  0.000E+00 g(S)=  0.000E+00 dE (1.order)= 0.000E+00
 bond charge predicted
       N       E                     dE             d eps       ncg     rms          rms(c)
DAV:   1    -0.186033421927E+04   -0.69964E-03   -0.38787E-02  1632   0.236E-01    0.493E-02
RMM:   2    -0.186033428283E+04   -0.63567E-04   -0.77088E-04  1536   0.300E-02    0.264E-02
RMM:   3    -0.186033427699E+04    0.58396E-05   -0.40165E-05  1511   0.512E-03    0.267E-02
RMM:   4    -0.186033426810E+04    0.88918E-05   -0.74159E-06  1447   0.199E-03    0.127E-02
RMM:   5    -0.186033426666E+04    0.14408E-05   -0.10561E-05  1498   0.272E-03    0.300E-03
RMM:   6    -0.186033426659E+04    0.68452E-07   -0.45238E-07  1052   0.537E-04
 194 F= -.18843932E+04 E0= -.18843931E+04  d E =-.345374E-03
quench:  g(F)=  0.000E+00 g(S)=  0.000E+00 dE (1.order)= 0.000E+00
 bond charge predicted
       N       E                     dE             d eps       ncg     rms          rms(c)
DAV:   1    -0.186033565288E+04   -0.13862E-02   -0.49546E-02  1584   0.249E-01    0.911E-02
RMM:   2    -0.186033574644E+04   -0.93554E-04   -0.12906E-03  1536   0.378E-02    0.617E-02
RMM:   3    -0.186033572903E+04    0.17411E-04   -0.65433E-05  1522   0.708E-03    0.396E-02
RMM:   4    -0.186033573309E+04   -0.40634E-05   -0.48510E-05  1508   0.476E-03    0.416E-02
RMM:   5    -0.186033571215E+04    0.20940E-04   -0.22222E-05  1504   0.343E-03    0.763E-03
RMM:   6    -0.186033571190E+04    0.24497E-06   -0.21832E-06  1303   0.117E-03    0.341E-03
RMM:   7    -0.186033571174E+04    0.16496E-06   -0.75395E-07  1284   0.750E-04    0.160E-03
RMM:   8    -0.186033571192E+04   -0.17598E-06   -0.20426E-07   934   0.405E-04    0.540E-04
RMM:   9    -0.186033571220E+04   -0.28593E-06   -0.78278E-08   854   0.227E-04    0.355E-04
RMM:  10    -0.186033571275E+04   -0.55297E-06   -0.15212E-07   927   0.287E-04    0.182E-04
RMM:  11    -0.186033571298E+04   -0.23053E-06   -0.53816E-08   751   0.172E-04    0.144E-04
RMM:  12    -0.186033571327E+04   -0.28209E-06   -0.31889E-08   726   0.139E-04    0.674E-05
RMM:  13    -0.186033571340E+04   -0.13334E-06   -0.13806E-08   624   0.104E-04    0.389E-05
RMM:  14    -0.186033571353E+04   -0.12887E-06   -0.64209E-09   490   0.862E-05    0.251E-05
RMM:  15    -0.186033571360E+04   -0.71130E-07   -0.32647E-09   392   0.776E-05
 195 F= -.18843924E+04 E0= -.18843923E+04  d E =0.761370E-03
quench:  g(F)=  0.000E+00 g(S)=  0.000E+00 dE (1.order)= 0.000E+00
 bond charge predicted
       N       E                     dE             d eps       ncg     rms          rms(c)
DAV:   1    -0.186033434955E+04    0.13640E-02   -0.43762E-02  1584   0.234E-01    0.854E-02
RMM:   2    -0.186033443240E+04   -0.82853E-04   -0.11371E-03  1536   0.354E-02    0.578E-02
RMM:   3    -0.186033441770E+04    0.14700E-04   -0.59004E-05  1520   0.667E-03    0.372E-02
RMM:   4    -0.186033442063E+04   -0.29284E-05   -0.42222E-05  1508   0.444E-03    0.383E-02
RMM:   5    -0.186033440324E+04    0.17385E-04   -0.19237E-05  1499   0.321E-03    0.710E-03
RMM:   6    -0.186033440308E+04    0.16361E-06   -0.18626E-06  1272   0.109E-03    0.318E-03
RMM:   7    -0.186033440290E+04    0.17819E-06   -0.64886E-07  1244   0.700E-04    0.149E-03
RMM:   8    -0.186033440302E+04   -0.12119E-06   -0.17299E-07   920   0.375E-04    0.499E-04
RMM:   9    -0.186033440323E+04   -0.20844E-06   -0.65398E-08   848   0.211E-04    0.325E-04
RMM:  10    -0.186033440364E+04   -0.41242E-06   -0.11973E-07   908   0.261E-04    0.167E-04
RMM:  11    -0.186033440383E+04   -0.18349E-06   -0.44456E-08   742   0.157E-04    0.129E-04
RMM:  12    -0.186033440405E+04   -0.21858E-06   -0.25578E-08   696   0.128E-04    0.613E-05
RMM:  13    -0.186033440416E+04   -0.11297E-06   -0.10858E-08   604   0.982E-05    0.350E-05
RMM:  14    -0.186033440427E+04   -0.10805E-06   -0.42114E-09   440   0.829E-05    0.213E-05
RMM:  15    -0.186033440433E+04   -0.61074E-07   -0.30948E-09   381   0.780E-05
 196 F= -.18843932E+04 E0= -.18843931E+04  d E =-.783098E-03
quench:  g(F)=  0.000E+00 g(S)=  0.000E+00 dE (1.order)= 0.000E+00
 bond charge predicted
       N       E                     dE             d eps       ncg     rms          rms(c)
DAV:   1    -0.186033326018E+04    0.11441E-02   -0.59275E-02  1536   0.287E-01    0.896E-02
RMM:   2    -0.186033334633E+04   -0.86152E-04   -0.13130E-03  1536   0.385E-02    0.343E-02
RMM:   3    -0.186033332347E+04    0.22855E-04   -0.55073E-05  1520   0.679E-03    0.212E-02
RMM:   4    -0.186033332407E+04   -0.59848E-06   -0.30470E-05  1512   0.423E-03    0.202E-02
RMM:   5    -0.186033331702E+04    0.70505E-05   -0.99581E-06  1469   0.219E-03    0.481E-03
RMM:   6    -0.186033331665E+04    0.36482E-06   -0.88075E-07  1267   0.827E-04    0.240E-03
RMM:   7    -0.186033331639E+04    0.26605E-06   -0.59063E-07  1270   0.642E-04    0.111E-03
RMM:   8    -0.186033331641E+04   -0.19005E-07   -0.13268E-07   901   0.326E-04
 197 F= -.18843928E+04 E0= -.18843927E+04  d E =0.407757E-03
quench:  g(F)=  0.000E+00 g(S)=  0.000E+00 dE (1.order)= 0.000E+00
 bond charge predicted
       N       E                     dE             d eps       ncg     rms          rms(c)
DAV:   1    -0.186033430562E+04   -0.98923E-03   -0.48961E-02  1568   0.261E-01    0.812E-02
RMM:   2    -0.186033437693E+04   -0.71314E-04   -0.10853E-03  1536   0.350E-02    0.312E-02
RMM:   3    -0.186033435884E+04    0.18092E-04   -0.46771E-05  1519   0.618E-03    0.202E-02
RMM:   4    -0.186033435957E+04   -0.72806E-06   -0.22820E-05  1504   0.353E-03    0.192E-02
RMM:   5    -0.186033435331E+04    0.62562E-05   -0.10620E-05  1476   0.232E-03    0.427E-03
RMM:   6    -0.186033435312E+04    0.18420E-06   -0.78753E-07  1224   0.768E-04    0.217E-03
RMM:   7    -0.186033435293E+04    0.19353E-06   -0.44856E-07  1163   0.573E-04    0.103E-03
RMM:   8    -0.186033435289E+04    0.40876E-07   -0.10350E-07   886   0.294E-04
 198 F= -.18843932E+04 E0= -.18843931E+04  d E =-.414104E-03
quench:  g(F)=  0.000E+00 g(S)=  0.000E+00 dE (1.order)= 0.000E+00
 bond charge predicted
       N       E                     dE             d eps       ncg     rms          rms(c)
DAV:   1    -0.186033500793E+04   -0.65499E-03   -0.53494E-02  1632   0.255E-01    0.903E-02
RMM:   2    -0.186033509756E+04   -0.89630E-04   -0.12981E-03  1536   0.368E-02    0.618E-02
RMM:   3    -0.186033507998E+04    0.17574E-04   -0.69765E-05  1518   0.692E-03    0.409E-02
RMM:   4    -0.186033507809E+04    0.18920E-05   -0.47210E-05  1501   0.453E-03    0.407E-02
RMM:   5    -0.186033505984E+04    0.18248E-04   -0.23438E-05  1502   0.362E-03    0.733E-03
RMM:   6    -0.186033505949E+04    0.35003E-06   -0.23491E-06  1299   0.118E-03    0.329E-03
RMM:   7    -0.186033505939E+04    0.98138E-07   -0.94089E-07  1287   0.789E-04
 199 F= -.18843924E+04 E0= -.18843923E+04  d E =0.802434E-03
quench:  g(F)=  0.000E+00 g(S)=  0.000E+00 dE (1.order)= 0.000E+00
 bond charge predicted
       N       E                     dE             d eps       ncg     rms          rms(c)
DAV:   1    -0.186033430629E+04    0.75320E-03   -0.10382E-01  1552   0.371E-01    0.994E-02
RMM:   2    -0.186033448728E+04   -0.18099E-03   -0.24005E-03  1536   0.515E-02    0.557E-02
RMM:   3    -0.186033446228E+04    0.25002E-04   -0.96265E-05  1539   0.863E-03    0.416E-02
RMM:   4    -0.186033446817E+04   -0.58926E-05   -0.64025E-05  1531   0.619E-03    0.292E-02
RMM:   5    -0.186033445492E+04    0.13256E-04   -0.22991E-05  1500   0.297E-03    0.979E-03
RMM:   6    -0.186033445313E+04    0.17853E-05   -0.24004E-06  1389   0.134E-03    0.329E-03
RMM:   7    -0.186033445295E+04    0.18292E-06   -0.76773E-07  1248   0.733E-04    0.195E-03
RMM:   8    -0.186033445299E+04   -0.39247E-07   -0.17597E-07   931   0.397E-04
 200 F= -.18843937E+04 E0= -.18843936E+04  d E =-.131235E-02
quench:  g(F)=  0.000E+00 g(S)=  0.000E+00 dE (1.order)= 0.000E+00
