 vasp.5.4.4.18Apr17-6-g9f103f2a35 (build Oct 20 2021 08:33:53) complex           
 executed on             LinuxGNU date 2024.04.14  09:06:36
 running on   64 total cores
 distrk:  each k-point on   64 cores,    1 groups
 distr:  one band on NCORES_PER_BAND=   4 cores,   16 groups


--------------------------------------------------------------------------------------------------------


 INCAR:
 POTCAR:    PAW_PBE C 08Apr2002                   
 POTCAR:    PAW_PBE H 15Jun2001                   
 POTCAR:    PAW_PBE O 08Apr2002                   
 POTCAR:    PAW_PBE Si 05Jan2001                  
 POTCAR:    PAW_PBE W 08Apr2002                   
 POTCAR:    PAW_PBE C 08Apr2002                   
   VRHFIN =C: s2p2                                                              
   LEXCH  = PE                                                                  
   EATOM  =   147.1560 eV,   10.8157 Ry                                         
                                                                                
   TITEL  = PAW_PBE C 08Apr2002                                                 
   LULTRA =        F    use ultrasoft PP ?                                      
   IUNSCR =        1    unscreen: 0-lin 1-nonlin 2-no                           
   RPACOR =    1.200    partial core radius                                     
   POMASS =   12.011; ZVAL   =    4.000    mass and valenz                      
   RCORE  =    1.500    outmost cutoff radius                                   
   RWIGS  =    1.630; RWIGS  =    0.863    wigner-seitz radius (au A)           
   ENMAX  =  400.000; ENMIN  =  300.000 eV                                      
   ICORE  =        2    local potential                                         
   LCOR   =        T    correct aug charges                                     
   LPAW   =        T    paw PP                                                  
   EAUG   =  644.873                                                            
   DEXC   =    0.000                                                            
   RMAX   =    1.529    core radius for proj-oper                               
   RAUG   =    1.300    factor for augmentation sphere                          
   RDEP   =    1.501    radius for radial grids                                 
   RDEPT  =    1.300    core radius for aug-charge                              
                                                                                
   Atomic configuration                                                         
    4 entries                                                                   
     n  l   j            E        occ.                                          
     1  0  0.50      -273.3789   2.0000                                         
     2  0  0.50       -13.7508   2.0000                                         
     2  1  0.50        -5.2854   2.0000                                         
     3  2  1.50        -5.4423   0.0000                                         
   Description                                                                  
     l       E           TYP  RCUT    TYP  RCUT                                 
     0    -13.7508458     23  1.200                                             
     0     -8.2022199     23  1.200                                             
     1     -5.2854383     23  1.500                                             
     1     34.0145650     23  1.500                                             
     2     -5.4423304      7  1.500                                             
  local pseudopotential read in
  partial core-charges read in
  partial kinetic energy density read in
  atomic valenz-charges read in
  non local Contribution for L=           0  read in
    real space projection operators read in
  non local Contribution for L=           0  read in
    real space projection operators read in
  non local Contribution for L=           1  read in
    real space projection operators read in
  non local Contribution for L=           1  read in
    real space projection operators read in
    PAW grid and wavefunctions read in

   number of l-projection  operators is LMAX  =           4
   number of lm-projection operators is LMMAX =           8

 POTCAR:    PAW_PBE H 15Jun2001                   
   VRHFIN =H: ultrasoft test                                                    
   LEXCH  = PE                                                                  
   EATOM  =    12.4884 eV,    0.9179 Ry                                         
                                                                                
   TITEL  = PAW_PBE H 15Jun2001                                                 
   LULTRA =        F    use ultrasoft PP ?                                      
   IUNSCR =        0    unscreen: 0-lin 1-nonlin 2-no                           
   RPACOR =    0.000    partial core radius                                     
   POMASS =    1.000; ZVAL   =    1.000    mass and valenz                      
   RCORE  =    1.100    outmost cutoff radius                                   
   RWIGS  =    0.700; RWIGS  =    0.370    wigner-seitz radius (au A)           
   ENMAX  =  250.000; ENMIN  =  200.000 eV                                      
   RCLOC  =    0.701    cutoff for local pot                                    
   LCOR   =        T    correct aug charges                                     
   LPAW   =        T    paw PP                                                  
   EAUG   =  400.000                                                            
   RMAX   =    1.123    core radius for proj-oper                               
   RAUG   =    1.200    factor for augmentation sphere                          
   RDEP   =    1.112    radius for radial grids                                 
   RDEPT  =    0.926    core radius for aug-charge                              
                                                                                
   Atomic configuration                                                         
    2 entries                                                                   
     n  l   j            E        occ.                                          
     1  0  0.50        -6.4927   1.0000                                         
     2  1  0.50        -3.4015   0.0000                                         
   Description                                                                  
     l       E           TYP  RCUT    TYP  RCUT                                 
     0     -6.4927494     23  1.100                                             
     0      6.8029130     23  1.100                                             
     1     -4.0817478     23  1.100                                             
  local pseudopotential read in
  atomic valenz-charges read in
  non local Contribution for L=           0  read in
    real space projection operators read in
  non local Contribution for L=           0  read in
    real space projection operators read in
  non local Contribution for L=           1  read in
    real space projection operators read in
    PAW grid and wavefunctions read in

   number of l-projection  operators is LMAX  =           3
   number of lm-projection operators is LMMAX =           5

 POTCAR:    PAW_PBE O 08Apr2002                   
   VRHFIN =O: s2p4                                                              
   LEXCH  = PE                                                                  
   EATOM  =   432.3788 eV,   31.7789 Ry                                         
                                                                                
   TITEL  = PAW_PBE O 08Apr2002                                                 
   LULTRA =        F    use ultrasoft PP ?                                      
   IUNSCR =        1    unscreen: 0-lin 1-nonlin 2-no                           
   RPACOR =    1.200    partial core radius                                     
   POMASS =   16.000; ZVAL   =    6.000    mass and valenz                      
   RCORE  =    1.520    outmost cutoff radius                                   
   RWIGS  =    1.550; RWIGS  =    0.820    wigner-seitz radius (au A)           
   ENMAX  =  400.000; ENMIN  =  300.000 eV                                      
   ICORE  =        2    local potential                                         
   LCOR   =        T    correct aug charges                                     
   LPAW   =        T    paw PP                                                  
   EAUG   =  605.392                                                            
   DEXC   =    0.000                                                            
   RMAX   =    1.553    core radius for proj-oper                               
   RAUG   =    1.300    factor for augmentation sphere                          
   RDEP   =    1.550    radius for radial grids                                 
   RDEPT  =    1.329    core radius for aug-charge                              
                                                                                
   Atomic configuration                                                         
    4 entries                                                                   
     n  l   j            E        occ.                                          
     1  0  0.50      -514.6923   2.0000                                         
     2  0  0.50       -23.9615   2.0000                                         
     2  1  0.50        -9.0305   4.0000                                         
     3  2  1.50        -9.5241   0.0000                                         
   Description                                                                  
     l       E           TYP  RCUT    TYP  RCUT                                 
     0    -23.9615318     23  1.200                                             
     0     -9.5240782     23  1.200                                             
     1     -9.0304911     23  1.520                                             
     1      8.1634956     23  1.520                                             
     2     -9.5240782      7  1.500                                             
  local pseudopotential read in
  partial core-charges read in
  partial kinetic energy density read in
  kinetic energy density of atom read in
  atomic valenz-charges read in
  non local Contribution for L=           0  read in
    real space projection operators read in
  non local Contribution for L=           0  read in
    real space projection operators read in
  non local Contribution for L=           1  read in
    real space projection operators read in
  non local Contribution for L=           1  read in
    real space projection operators read in
    PAW grid and wavefunctions read in

   number of l-projection  operators is LMAX  =           4
   number of lm-projection operators is LMMAX =           8

 POTCAR:    PAW_PBE Si 05Jan2001                  
   VRHFIN =Si: s2p2                                                             
   LEXCH  = PE                                                                  
   EATOM  =   103.0669 eV,    7.5752 Ry                                         
                                                                                
   TITEL  = PAW_PBE Si 05Jan2001                                                
   LULTRA =        F    use ultrasoft PP ?                                      
   IUNSCR =        1    unscreen: 0-lin 1-nonlin 2-no                           
   RPACOR =    1.500    partial core radius                                     
   POMASS =   28.085; ZVAL   =    4.000    mass and valenz                      
   RCORE  =    1.900    outmost cutoff radius                                   
   RWIGS  =    2.480; RWIGS  =    1.312    wigner-seitz radius (au A)           
   ENMAX  =  245.345; ENMIN  =  184.009 eV                                      
   ICORE  =        2    local potential                                         
   LCOR   =        T    correct aug charges                                     
   LPAW   =        T    paw PP                                                  
   EAUG   =  322.069                                                            
   DEXC   =    0.000                                                            
   RMAX   =    1.950    core radius for proj-oper                               
   RAUG   =    1.300    factor for augmentation sphere                          
   RDEP   =    1.993    radius for radial grids                                 
   RDEPT  =    1.837    core radius for aug-charge                              
                                                                                
   Atomic configuration                                                         
    6 entries                                                                   
     n  l   j            E        occ.                                          
     1  0  0.50     -1785.8828   2.0000                                         
     2  0  0.50      -139.4969   2.0000                                         
     2  1  1.50       -95.5546   6.0000                                         
     3  0  0.50       -10.8127   2.0000                                         
     3  1  0.50        -4.0811   2.0000                                         
     3  2  1.50        -4.0817   0.0000                                         
   Description                                                                  
     l       E           TYP  RCUT    TYP  RCUT                                 
     0    -10.8127223     23  1.900                                             
     0     -7.6451159     23  1.900                                             
     1     -4.0811372     23  1.900                                             
     1      2.4879257     23  1.900                                             
     2     -4.0817478      7  1.900                                             
  local pseudopotential read in
  partial core-charges read in
  partial kinetic energy density read in
  atomic valenz-charges read in
  non local Contribution for L=           0  read in
    real space projection operators read in
  non local Contribution for L=           0  read in
    real space projection operators read in
  non local Contribution for L=           1  read in
    real space projection operators read in
  non local Contribution for L=           1  read in
    real space projection operators read in
    PAW grid and wavefunctions read in

   number of l-projection  operators is LMAX  =           4
   number of lm-projection operators is LMMAX =           8

 POTCAR:    PAW_PBE W 08Apr2002                   
   VRHFIN =W : 6s5d                                                             
   LEXCH  = PE                                                                  
   EATOM  =   204.6103 eV,   15.0384 Ry                                         
                                                                                
   TITEL  = PAW_PBE W 08Apr2002                                                 
   LULTRA =        F    use ultrasoft PP ?                                      
   IUNSCR =        1    unscreen: 0-lin 1-nonlin 2-no                           
   RPACOR =    2.330    partial core radius                                     
   POMASS =  183.850; ZVAL   =    6.000    mass and valenz                      
   RCORE  =    2.750    outmost cutoff radius                                   
   RWIGS  =    2.750; RWIGS  =    1.455    wigner-seitz radius (au A)           
   ENMAX  =  223.057; ENMIN  =  167.293 eV                                      
   RCLOC  =    2.147    cutoff for local pot                                    
   LCOR   =        T    correct aug charges                                     
   LPAW   =        T    paw PP                                                  
   EAUG   =  373.438                                                            
   DEXC   =    0.000                                                            
   RMAX   =    2.801    core radius for proj-oper                               
   RAUG   =    1.300    factor for augmentation sphere                          
   RDEP   =    2.886    radius for radial grids                                 
   RDEPT  =    2.230    core radius for aug-charge                              
                                                                                
   Atomic configuration                                                         
   16 entries                                                                   
     n  l   j            E        occ.                                          
     1  0  0.50    -69465.5836   2.0000                                         
     2  0  0.50    -11986.2642   2.0000                                         
     2  1  1.50    -10479.8616   6.0000                                         
     3  0  0.50     -2759.0758   2.0000                                         
     3  1  1.50     -2313.1857   6.0000                                         
     3  2  2.50     -1801.1185  10.0000                                         
     4  0  0.50      -567.6791   2.0000                                         
     4  1  1.50      -421.4694   6.0000                                         
     4  2  2.50      -236.3473  10.0000                                         
     4  3  3.50       -31.2666  14.0000                                         
     5  0  0.50       -77.1085   2.0000                                         
     5  1  1.50       -41.3856   6.0000                                         
     5  2  2.50        -3.3185   5.0000                                         
     6  0  0.50        -5.1438   1.0000                                         
     6  1  0.50        -3.8096   0.0000                                         
     5  3  2.50        -1.3606   0.0000                                         
   Description                                                                  
     l       E           TYP  RCUT    TYP  RCUT                                 
     2     -3.3185288     23  2.500                                             
     2     -1.5965414     23  2.500                                             
     0     -5.1438054     23  2.500                                             
     0      4.9117504     23  2.500                                             
     1      2.7211652     23  2.750                                             
     1     27.2116520     23  2.750                                             
  local pseudopotential read in
  partial core-charges read in
  partial kinetic energy density read in
  atomic valenz-charges read in
  non local Contribution for L=           2  read in
    real space projection operators read in
  non local Contribution for L=           2  read in
    real space projection operators read in
  non local Contribution for L=           0  read in
    real space projection operators read in
  non local Contribution for L=           0  read in
    real space projection operators read in
  non local Contribution for L=           1  read in
    real space projection operators read in
  non local Contribution for L=           1  read in
    real space projection operators read in
    PAW grid and wavefunctions read in

   number of l-projection  operators is LMAX  =           6
   number of lm-projection operators is LMMAX =          18

 Optimization of the real space projectors (new method)

 maximal supplied QI-value         = 25.13
 optimisation between [QCUT,QGAM] = [ 11.31, 22.87] = [ 35.82,146.48] Ry 
 Optimized for a Real-space Cutoff    1.00 Angstroem

   l    n(q)    QCUT    max X(q) W(low)/X(q) W(high)/X(q)  e(spline) 
   0      7    11.310   115.676    0.43E-03    0.13E-02    0.19E-06
   0      7    11.310    87.132    0.43E-03    0.13E-02    0.18E-06
   1      6    11.310     4.429    0.42E-03    0.74E-03    0.11E-06
   1      6    11.310     2.733    0.34E-03    0.55E-03    0.92E-07
 Optimization of the real space projectors (new method)

 maximal supplied QI-value         = 34.20
 optimisation between [QCUT,QGAM] = [ 11.29, 22.57] = [ 35.68,142.71] Ry 
 Optimized for a Real-space Cutoff    1.16 Angstroem

   l    n(q)    QCUT    max X(q) W(low)/X(q) W(high)/X(q)  e(spline) 
   0      8    11.287    19.460    0.40E-03    0.73E-03    0.16E-06
   0      8    11.287    12.209    0.38E-03    0.70E-03    0.15E-06
   1      7    11.287     4.655    0.22E-03    0.25E-04    0.22E-06
 Optimization of the real space projectors (new method)

 maximal supplied QI-value         = 24.76
 optimisation between [QCUT,QGAM] = [ 11.39, 22.77] = [ 36.31,145.25] Ry 
 Optimized for a Real-space Cutoff    1.00 Angstroem

   l    n(q)    QCUT    max X(q) W(low)/X(q) W(high)/X(q)  e(spline) 
   0      7    11.387    20.381    0.39E-03    0.13E-02    0.15E-06
   0      7    11.387    15.268    0.42E-03    0.14E-02    0.17E-06
   1      6    11.387     5.964    0.41E-03    0.11E-02    0.17E-06
   1      6    11.387     5.382    0.39E-03    0.87E-03    0.15E-06
 Optimization of the real space projectors (new method)

 maximal supplied QI-value         = 19.84
 optimisation between [QCUT,QGAM] = [ 11.31, 22.82] = [ 35.82,145.81] Ry 
 Optimized for a Real-space Cutoff    1.16 Angstroem

   l    n(q)    QCUT    max X(q) W(low)/X(q) W(high)/X(q)  e(spline) 
   0      8    11.310   159.560    0.27E-03    0.30E-03    0.39E-07
   0      8    11.310   115.863    0.27E-03    0.30E-03    0.38E-07
   1      7    11.310    88.339    0.28E-03    0.28E-03    0.77E-07
   1      7    11.310    48.592    0.27E-03    0.27E-03    0.74E-07
 Optimization of the real space projectors (new method)

 maximal supplied QI-value         = 13.61
 optimisation between [QCUT,QGAM] = [ 11.43, 22.86] = [ 36.58,146.31] Ry 
 Optimized for a Real-space Cutoff    1.56 Angstroem

   l    n(q)    QCUT    max X(q) W(low)/X(q) W(high)/X(q)  e(spline) 
   2     10    11.429   130.855    0.22E-03    0.64E-03    0.11E-05
   2     10    11.429   114.007    0.22E-03    0.64E-03    0.11E-05
   0     11    11.429    84.709    0.39E-04    0.67E-04    0.23E-06
   0     11    11.429    49.163    0.35E-04    0.62E-04    0.21E-06
   1     10    11.429    15.765    0.84E-04    0.15E-03    0.24E-06
   1     10    11.429    10.638    0.58E-04    0.12E-03    0.19E-06

 ----------------------------------------------------------------------------- 
|                                                                             |
|  ADVICE TO THIS USER RUNNING 'VASP/VAMP'   (HEAR YOUR MASTER'S VOICE ...):  |
|                                                                             |
|      You enforced a specific xc-type in the INCAR file,                     |
|      a different type was found on the POTCAR file                          |
|          I HOPE YOU KNOW, WHAT YOU ARE  DOING                               |
|                                                                             |
 ----------------------------------------------------------------------------- 

  PAW_PBE C 08Apr2002                   :
 energy of atom  1       EATOM= -147.1560
 kinetic energy error for atom=    0.0076 (will be added to EATOM!!)
  PAW_PBE H 15Jun2001                   :
 energy of atom  2       EATOM=  -12.4884
 kinetic energy error for atom=    0.0020 (will be added to EATOM!!)
  PAW_PBE O 08Apr2002                   :
 energy of atom  3       EATOM= -432.3788
 kinetic energy error for atom=    0.0224 (will be added to EATOM!!)
  PAW_PBE Si 05Jan2001                  :
 energy of atom  4       EATOM= -103.0669
 kinetic energy error for atom=    0.0006 (will be added to EATOM!!)
  PAW_PBE W 08Apr2002                   :
 energy of atom  5       EATOM= -204.6103
 kinetic energy error for atom=    0.0017 (will be added to EATOM!!)


 POSCAR:  C  H  O Si  W                          
  positions in direct lattice
  velocities in cartesian coordinates
 exchange correlation table for  LEXCH =        9
   RHO(1)=    0.500       N(1)  =     2000
   RHO(2)=  100.500       N(2)  =     4000

 VTST: version 3.2, (02/03/18)

 CHAIN: initializing optimizer
 
 OPT: Using Conjugate-Gradient optimizer
 OPT: CG, Init
 OPT: CG, FDSTEP      0.005000
 OPT: CG, MAXMOVE      0.200000
 
 CHAIN: Read ICHAIN            2

 POSCAR:  C  H  O Si  W                          
  positions in direct lattice
  velocities in cartesian coordinates
 CHAIN: Running the Dimer method

 Dimer: -----------------
 Dimer: Input Parameters
 Dimer:   Seed      0
 Dimer: RotMax      4
 Dimer:     dR      0.005000
 Dimer:  FNMax      1.000000
 Dimer:  FNMin      0.000000
 Dimer: -----------------



--------------------------------------------------------------------------------------------------------


 ion  position               nearest neighbor table
   1  0.545  0.539  0.729-  49 1.11   2 1.52   3 1.54 276 2.13
   2  0.521  0.592  0.768-  50 1.10  54 1.21   4 1.46   1 1.52 276 2.76
   3  0.564  0.464  0.750-  53 1.10  52 1.10  51 1.11   1 1.54
   4  0.531  0.671  0.769-  56 1.09  55 1.09   2 1.46
   5  0.762  0.159  0.651- 131 0.97
   6  0.926  0.334  0.356-  79 0.98
   7  0.793  0.262  0.373- 114 0.97
   8  0.975  0.999  0.325- 123 0.97
   9  0.626  0.019  0.375- 125 0.98
  10  0.821  0.050  0.369- 143 0.97
  11  0.750  0.196  0.458- 181 0.98
  12  0.916  0.305  0.509- 186 0.97
  13  0.583  0.359  0.306- 191 0.97
  14  0.892  0.390  0.616-  97 0.98
  15  0.584  0.414  0.614- 142 0.98
  16  0.594  0.926  0.578- 184 0.99
  17  0.034  0.394  0.651- 190 0.97
  18  0.935  0.475  0.454- 179 0.98
  19  0.746  0.585  0.422-  93 1.00
  20  0.798  0.438  0.635- 171 0.97
  21  0.591  0.624  0.378- 105 0.99
  22  0.718  0.701  0.383- 128 0.99
  23  0.841  0.598  0.420- 134 0.98
  24  0.005  0.659  0.358- 139 0.97
  25  0.828  0.768  0.468- 180 0.99
  26  0.880  0.654  0.720-  59 0.97
  27  0.520  0.041  0.422- 141 0.99
  28  0.223  0.035  0.393- 182 1.00
  29  0.216  0.293  0.319- 197 0.99
  30  0.158  0.385  0.279- 188 0.97
  31  0.342  0.211  0.331- 189 0.98
  32  0.223  0.101  0.323- 196 0.97
  33  0.512  0.879  0.547- 199 0.97
  34  0.387  0.301  0.648-  84 0.97
  35  0.245  0.148  0.598- 135 0.98
  36  0.315  0.542  0.442-  58 0.99
  37  0.409  0.494  0.406- 147 0.98
  38  0.398  0.848  0.389- 185 0.97
  39  0.244  0.711  0.294- 193 0.97
  40  0.312  0.474  0.369- 194 0.98
  41  0.405  0.639  0.339- 195 0.97
  42  0.139  0.543  0.352- 187 0.98
  43  0.593  0.753  0.352-  88 0.97
  44  0.469  0.917  0.444- 198 0.99
  45  0.122  0.379  0.612- 107 0.97
  46  0.074  0.719  0.646- 138 0.97
  47  0.246  0.438  0.682- 183 0.97
  48  0.247  0.873  0.669- 192 0.97
  49  0.582  0.566  0.710-   1 1.11
  50  0.484  0.572  0.789-   2 1.10
  51  0.599  0.469  0.777-   3 1.11
  52  0.528  0.436  0.768-   3 1.10
  53  0.578  0.428  0.719-   3 1.10
  54  0.556  0.609  0.800-   2 1.21
  55  0.568  0.694  0.749-   4 1.09
  56  0.503  0.708  0.789-   4 1.09
  57  0.369  0.704  0.439- 230 1.66 265 1.68
  58  0.347  0.559  0.420-  36 0.99 265 1.67
  59  0.861  0.622  0.697-  26 0.97 236 1.64
  60  0.349  0.012  0.530- 241 1.68 274 1.69
  61  0.033  0.987  0.529- 256 1.63 267 1.66
  62  0.636  0.134  0.489- 234 1.60 223 1.65
  63  0.069  0.107  0.395- 222 1.64 214 1.65
  64  0.452  0.185  0.421- 239 1.65 220 1.65
  65  0.806  0.269  0.483- 238 1.67 235 1.69
  66  0.974  0.237  0.599- 216 1.63 246 1.65
  67  0.275  0.354  0.449- 262 1.65 272 1.66
  68  0.556  0.830  0.442- 243 1.51 270 1.66
  69  0.392  0.024  0.620- 260 1.65 274 1.66
  70  0.178  0.405  0.405- 262 1.66 237 1.67
  71  0.866  0.739  0.637- 240 1.64 236 1.64
  72  0.866  0.022  0.467- 232 1.60 247 1.65
  73  0.301  0.816  0.458- 230 1.65 244 1.67
  74  0.422  0.316  0.380- 239 1.67 259 1.67
  75  0.811  0.520  0.520- 266 1.63 213 1.64
  76  0.983  0.127  0.521- 256 1.68 216 1.69
  77  0.529  0.501  0.624- 275 1.64 276 2.11
  78  0.035  0.975  0.429- 267 1.64 214 1.65
  79  0.963  0.358  0.351-   6 0.98 215 1.65
  80  0.070  0.391  0.376- 215 1.64 237 1.65
  81  0.208  0.784  0.395- 244 1.66 254 1.67
  82  0.039  0.474  0.499- 269 1.64 242 1.65
  83  0.238  0.341  0.588- 250 1.63 227 1.63
  84  0.397  0.249  0.644-  34 0.97 221 1.64
  85  0.461  0.603  0.600- 275 1.73 252 1.74 276 2.41
  86  0.909  0.804  0.557- 240 1.64 219 1.66
  87  0.869  0.163  0.442- 247 1.64 235 1.65
  88  0.573  0.723  0.376-  43 0.97 243 1.68
  89  0.142  0.214  0.376- 268 1.65 222 1.65
  90  0.351  0.819  0.607- 212 1.62 253 1.64
  91  0.911  0.900  0.483- 232 1.62 219 1.66
  92  0.061  0.592  0.442- 269 1.66 211 1.67
  93  0.708  0.610  0.420-  19 1.00 225 1.67
  94  0.075  0.872  0.483- 267 1.50 249 1.65
  95  0.700  0.883  0.433- 224 1.53 257 1.65
  96  0.731  0.103  0.543- 258 1.64 223 1.64
  97  0.919  0.357  0.632-  14 0.98 246 1.63
  98  0.736  0.908  0.613- 231 1.66 228 1.67
  99  0.625  0.583  0.486- 233 1.59 225 1.68
 100  0.557  0.685  0.467- 243 1.52 233 1.62
 101  0.426  0.299  0.555- 221 1.68 264 1.68
 102  0.978  0.783  0.477- 249 1.65 219 1.65
 103  0.654  0.649  0.634- 271 1.65 217 1.66
 104  0.397  0.801  0.516- 212 1.66 230 1.66
 105  0.603  0.573  0.386-  21 0.99 225 1.65
 106  0.719  0.687  0.557- 255 1.63 271 1.65
 107  0.146  0.421  0.619-  45 0.97 227 1.64
 108  0.066  0.603  0.542- 269 1.63 273 1.64
 109  0.819  0.940  0.536- 232 1.65 231 1.67
 110  0.828  0.411  0.452- 238 1.65 213 1.65
 111  0.528  0.349  0.530- 264 1.61 245 1.63
 112  0.736  0.554  0.595- 271 1.65 266 1.66
 113  0.557  0.228  0.395- 251 1.59 220 1.64
 114  0.806  0.312  0.383-   7 0.97 238 1.67
 115  0.237  0.008  0.508- 241 1.58 226 1.67
 116  0.693  0.832  0.541- 255 1.64 228 1.64
 117  0.924  0.004  0.553- 256 1.65 232 1.65
 118  0.526  0.373  0.399- 251 1.45 259 1.66
 119  0.469  0.042  0.547- 260 1.69 261 1.70
 120  0.838  0.150  0.540- 235 1.65 258 1.66
 121  0.538  0.172  0.486- 234 1.61 220 1.67
 122  0.350  0.242  0.440- 272 1.63 239 1.65
 123  0.012  0.018  0.335-   8 0.97 214 1.65
 124  0.462  0.655  0.686- 252 1.64 276 2.04
 125  0.655  0.981  0.379-   9 0.98 224 1.66
 126  0.076  0.741  0.436- 211 1.65 249 1.66
 127  0.455  0.456  0.553- 275 1.67 264 1.70
 128  0.719  0.756  0.380-  22 0.99 257 1.65
 129  0.449  0.752  0.599- 252 1.64 212 1.64
 130  0.753  0.765  0.476- 255 1.63 257 1.69
 131  0.780  0.176  0.621-   5 0.97 258 1.64
 132  0.993  0.363  0.448- 242 1.66 215 1.68
 133  0.529  0.568  0.529- 275 1.64 233 1.65
 134  0.817  0.554  0.423-  23 0.98 213 1.69
 135  0.237  0.200  0.605-  35 0.98 250 1.62
 136  0.204  0.886  0.471- 226 1.50 244 1.63
 137  0.240  0.614  0.522- 229 1.65 218 1.66
 138  0.061  0.681  0.624-  46 0.97 273 1.64
 139  0.046  0.658  0.354-  24 0.97 211 1.65
 140  0.801  0.034  0.606- 231 1.66 258 1.69
 141  0.538  0.083  0.405-  27 0.99 220 1.66
 142  0.604  0.369  0.604-  15 0.98 245 1.63
 143  0.862  0.059  0.369-  10 0.97 247 1.66
 144  0.095  0.204  0.467- 248 1.62 222 1.65
 145  0.172  0.259  0.531- 248 1.61 250 1.63
 146  0.641  0.760  0.455- 243 1.65 257 1.66
 147  0.437  0.465  0.386-  37 0.98 259 1.66
 148  0.574  0.112  0.570- 261 1.62 234 1.65
 149  0.151  0.649  0.389- 254 1.68 211 1.68
 150  0.268  0.658  0.392- 265 1.65 254 1.67
 151  0.440  0.377  0.470- 264 1.64 259 1.69
 152  0.238  0.214  0.430- 268 1.65 272 1.67
 153  0.073  0.204  0.562- 248 1.64 216 1.64
 154  0.844  0.600  0.599- 236 1.66 266 1.66
 155  0.621  0.335  0.411- 263 1.65 251 1.66
 156  0.603  0.947  0.467- 270 1.29 224 1.67
 157  0.031  0.250  0.389- 215 1.66 222 1.66
 158  0.609  0.250  0.548- 234 1.62 245 1.64
 159  0.133  0.994  0.479- 267 1.65 226 1.66
 160  0.080  0.335  0.512- 242 1.64 248 1.65
 161  0.373  0.157  0.570- 274 1.63 221 1.68
 162  0.066  0.751  0.536- 249 1.63 273 1.63
 163  0.666  0.471  0.430- 225 1.65 263 1.65
 164  0.799  0.784  0.565- 255 1.61 240 1.63
 165  0.704  0.012  0.470- 223 1.65 224 1.66
 166  0.597  0.688  0.554- 233 1.63 217 1.64
 167  0.723  0.349  0.452- 238 1.63 263 1.64
 168  0.977  0.370  0.547- 242 1.64 246 1.67
 169  0.158  0.684  0.570- 229 1.63 273 1.65
 170  0.633  0.382  0.508- 245 1.63 263 1.65
 171  0.820  0.453  0.606-  20 0.97 266 1.65
 172  0.959  0.082  0.417- 247 1.64 214 1.65
 173  0.282  0.251  0.519- 272 1.62 250 1.65
 174  0.249  0.498  0.461- 218 1.66 262 1.71
 175  0.273  0.904  0.568- 241 1.64 253 1.65
 176  0.204  0.741  0.487- 229 1.63 244 1.66
 177  0.147  0.531  0.493- 218 1.63 269 1.65
 178  0.225  0.479  0.557- 218 1.61 227 1.63
 179  0.911  0.508  0.474-  18 0.98 213 1.65
 180  0.870  0.760  0.464-  25 0.99 219 1.65
 181  0.738  0.148  0.445-  11 0.98 223 1.66
 182  0.222  0.985  0.408-  28 1.00 226 1.64
 183  0.252  0.458  0.649-  47 0.97 227 1.64
 184  0.630  0.938  0.594-  16 0.99 228 1.62
 185  0.410  0.844  0.423-  38 0.97 230 1.68
 186  0.918  0.251  0.508-  12 0.97 235 1.65
 187  0.133  0.499  0.332-  42 0.98 237 1.65
 188  0.155  0.359  0.311-  30 0.97 237 1.69
 189  0.373  0.186  0.348-  31 0.98 239 1.66
 190  0.035  0.348  0.633-  17 0.97 246 1.66
 191  0.573  0.312  0.320-  13 0.97 251 1.66
 192  0.246  0.828  0.650-  48 0.97 253 1.64
 193  0.207  0.704  0.310-  39 0.97 254 1.65
 194  0.275  0.447  0.367-  40 0.98 262 1.66
 195  0.365  0.653  0.342-  41 0.97 265 1.67
 196  0.226  0.111  0.358-  32 0.97 268 1.69
 197  0.241  0.251  0.329-  29 0.99 268 1.66
 198  0.501  0.947  0.455-  44 0.99 270 1.60
 199  0.551  0.882  0.534-  33 0.97 270 1.67
 200  0.547  0.708  0.637- 217 1.64 252 1.65
 201  0.478  0.174  0.596- 261 1.65 221 1.66
 202  0.262  0.749  0.570- 253 1.65 229 1.65
 203  0.444  0.898  0.583- 260 1.66 212 1.69
 204  0.765  0.672  0.650- 271 1.65 236 1.66
 205  0.845  0.887  0.623- 240 1.66 231 1.68
 206  0.642  0.795  0.621- 217 1.66 228 1.70
 207  0.008  0.088  0.603- 256 1.69 216 1.69
 208  0.285  0.055  0.594- 274 1.69 241 1.70
 209  0.504  0.024  0.629- 260 1.69 261 1.70
 210  0.429  0.484  0.708- 276 1.72
 211  0.083  0.662  0.406- 139 1.65 126 1.65  92 1.67 149 1.68 269 3.13
 212  0.410  0.818  0.575-  90 1.62 129 1.64 104 1.66 203 1.69 253 3.06
 213  0.842  0.497  0.468-  75 1.64 110 1.65 179 1.65 134 1.69
 214  0.017  0.046  0.394-  63 1.65 172 1.65  78 1.65 123 1.65 267 3.11 222 3.13
 215  0.015  0.339  0.391-  80 1.64  79 1.65 157 1.66 132 1.68 242 3.11 222 3.11
 216  0.009  0.170  0.572-  66 1.63 153 1.64  76 1.69 207 1.69 256 2.39 248 3.05 246 3.08
 217  0.611  0.714  0.611- 166 1.64 200 1.64 103 1.66 206 1.66 271 2.85
 218  0.214  0.531  0.510- 178 1.61 177 1.63 174 1.66 137 1.66 229 3.10 262 3.14
 219  0.915  0.811  0.496- 102 1.65 180 1.65  86 1.66  91 1.66 232 2.99 240 3.03
 220  0.521  0.166  0.426- 113 1.64  64 1.65 141 1.66 121 1.67 251 3.08 234 3.13
 221  0.419  0.222  0.589-  84 1.64 201 1.66 101 1.68 161 1.68 274 3.14 261 3.15
 222  0.083  0.194  0.407-  63 1.64 144 1.65  89 1.65 157 1.66 215 3.11 214 3.13 268 3.14
 223  0.702  0.100  0.487-  96 1.64 165 1.65  62 1.65 181 1.66 234 3.09 224 3.10
 224  0.665  0.953  0.437-  95 1.53 165 1.66 125 1.66 156 1.67 270 2.83 257 3.06 223 3.10
 225  0.650  0.559  0.430- 105 1.65 163 1.65  93 1.67  99 1.68 233 3.08
 226  0.198  0.968  0.464- 136 1.50 182 1.64 159 1.66 115 1.67 244 3.01 241 3.06 267 3.07
 227  0.214  0.423  0.604-  83 1.63 178 1.63 107 1.64 183 1.64
 228  0.674  0.869  0.595- 184 1.62 116 1.64  98 1.67 206 1.70 255 2.89
 229  0.216  0.697  0.539- 169 1.63 176 1.63 202 1.65 137 1.65 244 3.09 218 3.10 273 3.13
 230  0.369  0.790  0.459-  73 1.65 104 1.66  57 1.66 185 1.68
 231  0.798  0.944  0.596- 140 1.66  98 1.66 109 1.67 205 1.68 240 2.85 232 2.98 258 3.14
 232  0.880  0.967  0.512-  72 1.60  91 1.62 109 1.65 117 1.65 231 2.98 219 2.99 256 3.05 247 3.13

 233  0.576  0.630  0.512-  99 1.59 100 1.62 166 1.63 133 1.65 243 2.99 225 3.08
 234  0.590  0.170  0.525-  62 1.60 121 1.61 158 1.62 148 1.65 261 2.86 223 3.09 245 3.10 220 3.13

 235  0.858  0.207  0.495- 186 1.65  87 1.65 120 1.65  65 1.69 247 3.07 238 3.15
 236  0.835  0.659  0.646-  59 1.64  71 1.64 154 1.66 204 1.66 271 2.93 240 3.00 266 3.01
 237  0.134  0.416  0.357- 187 1.65  80 1.65  70 1.67 188 1.69 262 3.11
 238  0.791  0.335  0.442- 167 1.63 110 1.65 114 1.67  65 1.67 235 3.15
 239  0.399  0.233  0.396-  64 1.65 122 1.65 189 1.66  74 1.67 259 3.07
 240  0.856  0.805  0.597- 164 1.63  86 1.64  71 1.64 205 1.66 231 2.85 236 3.00 219 3.03
 241  0.283  0.989  0.549- 115 1.58 175 1.64  60 1.68 208 1.70 274 2.37 226 3.06
 242  0.023  0.386  0.502- 160 1.64 168 1.64  82 1.65 132 1.66 246 3.10 215 3.11 248 3.14
 243  0.575  0.751  0.436-  68 1.51 100 1.52 146 1.65  88 1.68 233 2.99 270 3.06 257 3.10
 244  0.230  0.808  0.452- 136 1.63 176 1.66  81 1.66  73 1.67 254 2.97 226 3.01 229 3.09
 245  0.594  0.338  0.548- 170 1.63 142 1.63 111 1.63 158 1.64 234 3.10
 246  0.975  0.328  0.602-  97 1.63  66 1.65 190 1.66 168 1.67 216 3.08 242 3.10
 247  0.889  0.081  0.424-  87 1.64 172 1.64  72 1.65 143 1.66 235 3.07 232 3.13
 248  0.105  0.250  0.518- 145 1.61 144 1.62 153 1.64 160 1.65 216 3.05 242 3.14
 249  0.048  0.788  0.483- 162 1.63 102 1.65  94 1.65 126 1.66 267 3.05
 250  0.232  0.261  0.561- 135 1.62  83 1.63 145 1.63 173 1.65 272 3.02
 251  0.561  0.313  0.381- 118 1.45 113 1.59 155 1.66 191 1.66 259 2.87 220 3.08
 252  0.479  0.684  0.630- 129 1.64 124 1.64 200 1.65  85 1.74 276 2.87
 253  0.282  0.825  0.598- 192 1.64  90 1.64 202 1.65 175 1.65 212 3.06
 254  0.209  0.699  0.372- 193 1.65 150 1.67  81 1.67 149 1.68 244 2.97
 255  0.740  0.766  0.536- 164 1.61 130 1.63 106 1.63 116 1.64 228 2.89 257 2.90 271 3.07
 256  0.986  0.045  0.551-  61 1.63 117 1.65  76 1.68 207 1.69 216 2.39 232 3.05
 257  0.703  0.792  0.434-  95 1.65 128 1.65 146 1.66 130 1.69 255 2.90 224 3.06 243 3.10
 258  0.788  0.114  0.577-  96 1.64 131 1.64 120 1.66 140 1.69 231 3.14
 259  0.456  0.384  0.409- 147 1.66 118 1.66  74 1.67 151 1.69 251 2.87 239 3.07
 260  0.451  0.988  0.595-  69 1.65 203 1.66 119 1.69 209 1.69 261 2.36 274 2.75
 261  0.509  0.094  0.586- 148 1.62 201 1.65 119 1.70 209 1.70 260 2.36 234 2.86 221 3.15
 262  0.244  0.426  0.421-  67 1.65  70 1.66 194 1.66 174 1.71 237 3.11 218 3.14
 263  0.659  0.385  0.450- 167 1.64 155 1.65 163 1.65 170 1.65
 264  0.461  0.370  0.528- 111 1.61 151 1.64 101 1.68 127 1.70
 265  0.337  0.645  0.399- 150 1.65 195 1.67  58 1.67  57 1.68
 266  0.803  0.532  0.580-  75 1.63 171 1.65 154 1.66 112 1.66 271 2.90 236 3.01
 267  0.069  0.954  0.481-  94 1.50  78 1.64 159 1.65  61 1.66 249 3.05 226 3.07 214 3.11
 268  0.212  0.200  0.374-  89 1.65 152 1.65 197 1.66 196 1.69 272 3.12 222 3.14
 269  0.078  0.549  0.495- 108 1.63  82 1.64 177 1.65  92 1.66 273 3.09 211 3.13
 270  0.558  0.908  0.475- 156 1.29 198 1.60  68 1.66 199 1.67 224 2.83 243 3.06
 271  0.718  0.640  0.610- 103 1.65 106 1.65 204 1.65 112 1.65 217 2.85 266 2.90 236 2.93 255 3.07

 272  0.287  0.265  0.459- 173 1.62 122 1.63  67 1.66 152 1.67 250 3.02 268 3.12
 273  0.088  0.680  0.568- 162 1.63 138 1.64 108 1.64 169 1.65 269 3.09 229 3.13
 274  0.354  0.072  0.579- 161 1.63  69 1.66 208 1.69  60 1.69 241 2.37 260 2.75 221 3.14
 275  0.494  0.527  0.574- 133 1.64  77 1.64 127 1.67  85 1.73 276 2.88
 276  0.475  0.544  0.679- 210 1.72 124 2.04  77 2.11   1 2.13  85 2.41   2 2.76 252 2.87 275 2.88


  LATTYP: Found a simple orthorhombic cell.
 ALAT       =    18.1212369514
 B/A-ratio  =     1.2919258579
 C/A-ratio  =     1.4835282260
  
  Lattice vectors:
  
 A1 = (   0.0000000000, -18.1212369514,   0.0000000000)
 A2 = ( -23.4112945954,   0.0000000000,   0.0000000000)
 A3 = (   0.0000000000,   0.0000000000, -26.8833665073)


Analysis of symmetry for initial positions (statically):
=====================================================================
 Subroutine PRICEL returns:
 Original cell was already a primitive cell.
 

 Routine SETGRP: Setting up the symmetry group for a 
 simple orthorhombic supercell.


 Subroutine GETGRP returns: Found  1 space group operations
 (whereof  1 operations were pure point group operations)
 out of a pool of  8 trial point group operations.


The static configuration has the point symmetry C_1 .


Analysis of symmetry for dynamics (positions and initial velocities):
=====================================================================
 Subroutine PRICEL returns:
 Original cell was already a primitive cell.
 

 Routine SETGRP: Setting up the symmetry group for a 
 simple orthorhombic supercell.


 Subroutine GETGRP returns: Found  1 space group operations
 (whereof  1 operations were pure point group operations)
 out of a pool of  8 trial point group operations.


The dynamic configuration has the point symmetry C_1 .


Analysis of constrained symmetry for selective dynamics:
=====================================================================
 Subroutine PRICEL returns:
 Original cell was already a primitive cell.
 

 Routine SETGRP: Setting up the symmetry group for a 
 simple orthorhombic supercell.


 Subroutine GETGRP returns: Found  1 space group operations
 (whereof  1 operations were pure point group operations)
 out of a pool of  8 trial point group operations.


The constrained configuration has the point symmetry C_1 .


 Subroutine INISYM returns: Found  1 space group operations
 (whereof  1 operations are pure point group operations),
 and found     1 'primitive' translations



 KPOINTS: KPOINTS created by Atomic Simulation Env

Automatic generation of k-mesh.
Space group operators:
 irot       det(A)        alpha          n_x          n_y          n_z        tau_x        tau_y        tau_z
    1     1.000000     0.000001     1.000000     0.000000     0.000000     0.000000     0.000000     0.000000
 
 Subroutine IBZKPT returns following result:
 ===========================================
 
 Found      5 irreducible k-points:
 
 Following reciprocal coordinates:
            Coordinates               Weight
  0.000000  0.000000  0.000000      1.000000
  0.333333  0.000000  0.000000      2.000000
  0.000000  0.333333  0.000000      2.000000
  0.333333  0.333333  0.000000      2.000000
 -0.333333  0.333333  0.000000      2.000000
 
 Following cartesian coordinates:
            Coordinates               Weight
  0.000000  0.000000  0.000000      1.000000
  0.014238  0.000000  0.000000      2.000000
  0.000000  0.018395  0.000000      2.000000
  0.014238  0.018395  0.000000      2.000000
 -0.014238  0.018395  0.000000      2.000000
 


--------------------------------------------------------------------------------------------------------




 Dimension of arrays:
   k-points           NKPTS =      5   k-points in BZ     NKDIM =      5   number of bands    NBANDS=    768
   number of dos      NEDOS =    301   number of ions     NIONS =    276
   non local maximal  LDIM  =      6   non local SUM 2l+1 LMDIM =     18
   total plane-waves  NPLWV = ******
   max r-space proj   IRMAX =   2748   max aug-charges    IRDMAX=   9808
   dimension x,y,z NGX =   128 NGY =  100 NGZ =  150
   dimension x,y,z NGXF=   256 NGYF=  200 NGZF=  300
   support grid    NGXF=   256 NGYF=  200 NGZF=  300
   ions per type =               4  52 154  65   1
   NGX,Y,Z   is equivalent  to a cutoff of   9.09,  9.17,  9.28 a.u.
   NGXF,Y,Z  is equivalent  to a cutoff of  18.18, 18.35, 18.55 a.u.

 SYSTEM =  unknown system                          
 POSCAR =   C  H  O Si  W                          

 Startparameter for this run:
   NWRITE =      2    write-flag & timer
   PREC   = normal    normal or accurate (medium, high low for compatibility)
   ISTART =      0    job   : 0-new  1-cont  2-samecut
   ICHARG =      2    charge: 1-file 2-atom 10-const
   ISPIN  =      1    spin polarized calculation?
   LNONCOLLINEAR =      F non collinear calculations
   LSORBIT =      F    spin-orbit coupling
   INIWAV =      1    electr: 0-lowe 1-rand  2-diag
   LASPH  =      T    aspherical Exc in radial PAW
   METAGGA=      F    non-selfconsistent MetaGGA calc.

 Electronic Relaxation 1
   ENCUT  =  500.0 eV  36.75 Ry    6.06 a.u.  42.68 33.04 49.01*2*pi/ulx,y,z
   ENINI  =  500.0     initial cutoff
   ENAUG  =  644.9 eV  augmentation charge cutoff
   NELM   =     60;   NELMIN=  2; NELMDL=  0     # of ELM steps 
   EDIFF  = 0.1E-06   stopping-criterion for ELM
   LREAL  =      T    real-space projection
   NLSPLINE    = F    spline interpolate recip. space projectors
   LCOMPAT=      F    compatible to vasp.4.4
   GGA_COMPAT  = T    GGA compatible to vasp.4.4-vasp.4.6
   LMAXPAW     = -100 max onsite density
   LMAXMIX     =    2 max onsite mixed and CHGCAR
   VOSKOWN=      0    Vosko Wilk Nusair interpolation
   ROPT   =   -0.00050  -0.00050  -0.00050  -0.00050
   ROPT   =   -0.00050
 Ionic relaxation
   EDIFFG = -.5E-01   stopping-criterion for IOM
   NSW    =    200    number of steps for IOM
   NBLOCK =      1;   KBLOCK =    200    inner block; outer block 
   IBRION =      3    ionic relax: 0-MD 1-quasi-New 2-CG
   NFREE  =      0    steps in history (QN), initial steepest desc. (CG)
   ISIF   =      0    stress and relaxation
   IWAVPR =     11    prediction:  0-non 1-charg 2-wave 3-comb
   ISYM   =      2    0-nonsym 1-usesym 2-fastsym
   LCORR  =      T    Harris-Foulkes like correction to forces

   POTIM  = 0.0000    time-step for ionic-motion
   TEIN   =    0.0    initial temperature
   TEBEG  =    0.0;   TEEND  =   0.0 temperature during run
   SMASS  =  -3.00    Nose mass-parameter (am)
   estimated Nose-frequenzy (Omega)   =  0.10E-29 period in steps =  0.00 mass=  -0.125E-25a.u.
   SCALEE = 1.0000    scale energy and forces
   NPACO  =    256;   APACO  = 16.0  distance and # of slots for P.C.
   PSTRESS=    0.0 pullay stress

  Mass of Ions in am
   POMASS =  12.01  1.00 16.00 28.09183.85
  Ionic Valenz
   ZVAL   =   4.00  1.00  6.00  4.00  6.00
  Atomic Wigner-Seitz radii
   RWIGS  =  -1.00 -1.00 -1.00 -1.00 -1.00
  virtual crystal weights 
   VCA    =   1.00  1.00  1.00  1.00  1.00
   NELECT =    1258.0000    total number of electrons
   NUPDOWN=      -1.0000    fix difference up-down

 DOS related values:
   EMIN   =  10.00;   EMAX   =-10.00  energy-range for DOS
   EFERMI =   0.00
   ISMEAR =     0;   SIGMA  =   0.20  broadening in eV -4-tet -1-fermi 0-gaus

 Electronic relaxation 2 (details)
   IALGO  =     68    algorithm
   LDIAG  =      T    sub-space diagonalisation (order eigenvalues)
   LSUBROT=      F    optimize rotation matrix (better conditioning)
   TURBO    =      0    0=normal 1=particle mesh
   IRESTART =      0    0=no restart 2=restart with 2 vectors
   NREBOOT  =      0    no. of reboots
   NMIN     =      0    reboot dimension
   EREF     =   0.00    reference energy to select bands
   IMIX   =      4    mixing-type and parameters
     AMIX     =   0.40;   BMIX     =  1.00
     AMIX_MAG =   1.60;   BMIX_MAG =  1.00
     AMIN     =   0.10
     WC   =   100.;   INIMIX=   1;  MIXPRE=   1;  MAXMIX= -45

 Intra band minimization:
   WEIMIN = 0.0010     energy-eigenvalue tresh-hold
   EBREAK =  0.33E-10  absolut break condition
   DEPER  =   0.30     relativ break condition  

   TIME   =   0.40     timestep for ELM

  volume/ion in A,a.u.               =      41.32       278.86
  Fermi-wavevector in a.u.,A,eV,Ry     =   0.785120  1.483662  8.386815  0.616413
  Thomas-Fermi vector in A             =   1.889391

 Write flags
   LWAVE        =      F    write WAVECAR
   LDOWNSAMPLE  =      F    k-point downsampling of WAVECAR
   LCHARG       =      F    write CHGCAR
   LVTOT        =      F    write LOCPOT, total local potential
   LVHAR        =      F    write LOCPOT, Hartree potential only
   LELF         =      F    write electronic localiz. function (ELF)
   LORBIT       =      0    0 simple, 1 ext, 2 COOP (PROOUT), +10 PAW based schemes


 Dipole corrections
   LMONO  =      F    monopole corrections only (constant potential shift)
   LDIPOL =      T    correct potential (dipole corrections)
   IDIPOL =      3    1-x, 2-y, 3-z, 4-all directions 
   EPSILON=  1.0000000 bulk dielectric constant

 Exchange correlation treatment:
   GGA     =    RP    GGA type
   LEXCH   =     9    internal setting for exchange type
   VOSKOWN=      0    Vosko Wilk Nusair interpolation
   LHFCALC =     F    Hartree Fock is set to
   LHFONE  =     F    Hartree Fock one center treatment
   AEXX    =    0.0000 exact exchange contribution

 Linear response parameters
   LEPSILON=     F    determine dielectric tensor
   LRPA    =     F    only Hartree local field effects (RPA)
   LNABLA  =     F    use nabla operator in PAW spheres
   LVEL    =     F    velocity operator in full k-point grid
   LINTERFAST=   F  fast interpolation
   KINTER  =     0    interpolate to denser k-point grid
   CSHIFT  =0.1000    complex shift for real part using Kramers Kronig
   OMEGAMAX=  -1.0    maximum frequency
   DEG_THRESHOLD= 0.2000000E-02 threshold for treating states as degnerate
   RTIME   =   -0.100 relaxation time in fs
  (WPLASMAI=    0.000 imaginary part of plasma frequency in eV, 0.658/RTIME)
   DFIELD  = 0.0000000 0.0000000 0.0000000 field for delta impulse in time

 Orbital magnetization related:
   ORBITALMAG=     F  switch on orbital magnetization
   LCHIMAG   =     F  perturbation theory with respect to B field
   DQ        =  0.001000  dq finite difference perturbation B field
   LLRAUG    =     F  two centre corrections for induced B field



--------------------------------------------------------------------------------------------------------


 quickmin algorithm: (dynamic with friction)
   using selective dynamics as specified on POSCAR
 charge density and potential will be updated during run
 non-spin polarized calculation
 RMM-DIIS sequential band-by-band and
  variant of blocked Davidson during initial phase
 perform sub-space diagonalisation
    before iterative eigenvector-optimisation
 modified Broyden-mixing scheme, WC =      100.0
 initial mixing is a Kerker type mixing with AMIX =  0.4000 and BMIX =      1.0000
 Hartree-type preconditioning will be used
 using additional bands          139
 real space projection scheme for non local part
 use partial core corrections
 calculate Harris-corrections to forces   (improved forces if not selfconsistent)
 use gradient corrections 
 use of overlap-Matrix (Vanderbilt PP)
 Gauss-broadening in eV      SIGMA  =   0.20


--------------------------------------------------------------------------------------------------------


  energy-cutoff  :      500.00
  volume of cell :    11405.04
      direct lattice vectors                 reciprocal lattice vectors
    23.411294595  0.000000000  0.000000000     0.042714426  0.000000000  0.000000000
     0.000000000 18.121236951  0.000000000     0.000000000  0.055183871  0.000000000
     0.000000000  0.000000000 26.883366507     0.000000000  0.000000000  0.037197722

  length of vectors
    23.411294595 18.121236951 26.883366507     0.042714426  0.055183871  0.037197722



 k-points in units of 2pi/SCALE and weight: KPOINTS created by Atomic Simulation Env
   0.00000000  0.00000000  0.00000000       0.111
   0.01423814  0.00000000  0.00000000       0.222
   0.00000000  0.01839462  0.00000000       0.222
   0.01423814  0.01839462  0.00000000       0.222
  -0.01423814  0.01839462  0.00000000       0.222

 k-points in reciprocal lattice and weights: KPOINTS created by Atomic Simulation Env
   0.00000000  0.00000000  0.00000000       0.111
   0.33333333  0.00000000  0.00000000       0.222
   0.00000000  0.33333333  0.00000000       0.222
   0.33333333  0.33333333  0.00000000       0.222
  -0.33333333  0.33333333  0.00000000       0.222

 position of ions in fractional coordinates (direct lattice) 
   0.54549192  0.53940809  0.72926545
   0.52140521  0.59188257  0.76799344
   0.56364773  0.46373623  0.74951314
   0.53146028  0.67134263  0.76852704
   0.76214988  0.15888318  0.65115965
   0.92642768  0.33385283  0.35633493
   0.79333970  0.26246277  0.37345652
   0.97453911  0.99879247  0.32530279
   0.62573266  0.01865672  0.37523120
   0.82053840  0.05019053  0.36899263
   0.74999307  0.19636263  0.45803819
   0.91559325  0.30464787  0.50942791
   0.58349286  0.35944742  0.30592717
   0.89161175  0.39030631  0.61620257
   0.58351642  0.41446730  0.61389192
   0.59370375  0.92570665  0.57806670
   0.03391306  0.39426794  0.65137674
   0.93527051  0.47469810  0.45410146
   0.74613838  0.58549586  0.42248819
   0.79760030  0.43829605  0.63500001
   0.59110202  0.62386670  0.37803474
   0.71843379  0.70111666  0.38346059
   0.84115291  0.59761047  0.41959617
   0.00476455  0.65898202  0.35777830
   0.82835870  0.76754054  0.46794226
   0.87992430  0.65421848  0.71977976
   0.51999031  0.04074863  0.42170307
   0.22309457  0.03533871  0.39320502
   0.21637369  0.29303533  0.31923033
   0.15750105  0.38499010  0.27898292
   0.34154688  0.21076958  0.33077276
   0.22271586  0.10094280  0.32273843
   0.51198440  0.87887157  0.54693534
   0.38660019  0.30069718  0.64818514
   0.24506699  0.14832603  0.59787196
   0.31538097  0.54232034  0.44243467
   0.40895618  0.49391873  0.40569060
   0.39849950  0.84829748  0.38878680
   0.24420236  0.71061395  0.29432688
   0.31174138  0.47365958  0.36925764
   0.40547429  0.63946352  0.33881989
   0.13935762  0.54315752  0.35192946
   0.59326935  0.75317100  0.35239799
   0.46900683  0.91661134  0.44382838
   0.12165895  0.37941508  0.61154010
   0.07393664  0.71936592  0.64610335
   0.24604511  0.43784517  0.68197529
   0.24736549  0.87319392  0.66903813
   0.58167407  0.56593283  0.70968824
   0.48409220  0.57213282  0.78877493
   0.59873701  0.46940603  0.77676529
   0.52754343  0.43625701  0.76804924
   0.57842116  0.42780120  0.71915764
   0.55558693  0.60908984  0.79978093
   0.56817006  0.69383028  0.74875035
   0.50325293  0.70831288  0.78888010
   0.36894173  0.70353897  0.43900002
   0.34681565  0.55921774  0.42038813
   0.86058137  0.62173361  0.69666457
   0.34939044  0.01182251  0.53044027
   0.03338690  0.98720886  0.52872430
   0.63635548  0.13405242  0.48937667
   0.06864615  0.10744929  0.39511073
   0.45189954  0.18474620  0.42059728
   0.80588415  0.26883405  0.48316661
   0.97368767  0.23704184  0.59853006
   0.27476529  0.35435674  0.44851223
   0.55635417  0.83027516  0.44175101
   0.39233005  0.02394406  0.61983559
   0.17751724  0.40515232  0.40527312
   0.86603108  0.73945457  0.63741480
   0.86569601  0.02236080  0.46703846
   0.30104714  0.81612071  0.45792526
   0.42161095  0.31643609  0.37959630
   0.81086331  0.52038948  0.52002769
   0.98326938  0.12700296  0.52110195
   0.52944935  0.50073330  0.62420628
   0.03453641  0.97513163  0.42940526
   0.96303654  0.35837918  0.35125762
   0.06962669  0.39128964  0.37637178
   0.20829566  0.78382817  0.39536010
   0.03890126  0.47428579  0.49910875
   0.23839196  0.34133188  0.58796483
   0.39688060  0.24923515  0.64414279
   0.46088992  0.60305749  0.59964175
   0.90947369  0.80379308  0.55745077
   0.86912727  0.16322721  0.44227833
   0.57257679  0.72251572  0.37613173
   0.14242656  0.21430937  0.37597224
   0.35095007  0.81949335  0.60712814
   0.91099605  0.90023144  0.48317962
   0.06133801  0.59205558  0.44225348
   0.70833903  0.61035042  0.41995768
   0.07548726  0.87199068  0.48299416
   0.70046477  0.88273959  0.43263529
   0.73062701  0.10340353  0.54293085
   0.91892908  0.35715159  0.63202073
   0.73555792  0.90773937  0.61299809
   0.62512195  0.58257787  0.48637871
   0.55657330  0.68488691  0.46724942
   0.42647820  0.29927107  0.55494420
   0.97829009  0.78342750  0.47679564
   0.65403908  0.64900209  0.63397326
   0.39689762  0.80073002  0.51552283
   0.60269007  0.57284932  0.38567099
   0.71882600  0.68667347  0.55726688
   0.14626923  0.42110849  0.61919064
   0.06555091  0.60313701  0.54213661
   0.81853009  0.93964069  0.53640868
   0.82821553  0.41056901  0.45190334
   0.52810818  0.34871570  0.52985338
   0.73636743  0.55426493  0.59490163
   0.55743394  0.22761498  0.39490854
   0.80596408  0.31159644  0.38329286
   0.23744622  0.00843462  0.50791956
   0.69276879  0.83203217  0.54116625
   0.92355450  0.00429262  0.55312121
   0.52573722  0.37296499  0.39855594
   0.46850521  0.04215841  0.54651732
   0.83807280  0.14981133  0.53970793
   0.53790325  0.17160136  0.48623709
   0.35019344  0.24179260  0.43963639
   0.01176032  0.01759777  0.33524376
   0.46164801  0.65499798  0.68551319
   0.65496522  0.98058138  0.37922825
   0.07629334  0.74121013  0.43588102
   0.45531994  0.45604596  0.55333349
   0.71921944  0.75560472  0.37958300
   0.44925902  0.75202638  0.59895412
   0.75255106  0.76450845  0.47629548
   0.77977103  0.17600748  0.62064533
   0.99327462  0.36319734  0.44840298
   0.52901016  0.56816283  0.52921487
   0.81677759  0.55424561  0.42344221
   0.23668145  0.20005537  0.60486583
   0.20353331  0.88588519  0.47053363
   0.24022876  0.61421934  0.52244980
   0.06100377  0.68058434  0.62399425
   0.04607407  0.65753056  0.35417863
   0.80148618  0.03375451  0.60583857
   0.53799091  0.08288136  0.40450275
   0.60405313  0.36949276  0.60431214
   0.86154611  0.05926472  0.36920633
   0.09491131  0.20420671  0.46708233
   0.17156766  0.25851813  0.53071924
   0.64098865  0.75962259  0.45481558
   0.43678778  0.46495235  0.38641325
   0.57419001  0.11163688  0.57041892
   0.15143775  0.64859189  0.38895836
   0.26773979  0.65752140  0.39230630
   0.44025846  0.37738205  0.47032443
   0.23800967  0.21369500  0.42990119
   0.07283499  0.20399901  0.56210012
   0.84426471  0.60008097  0.59940324
   0.62117943  0.33512375  0.41090545
   0.60266699  0.94671054  0.46722346
   0.03138539  0.25047370  0.38899188
   0.60893988  0.24951948  0.54807098
   0.13279973  0.99353852  0.47948708
   0.07979875  0.33507297  0.51230184
   0.37288419  0.15727726  0.56956279
   0.06595370  0.75137355  0.53564601
   0.66648838  0.47056875  0.43001156
   0.79885599  0.78436309  0.56463481
   0.70383856  0.01239230  0.47018456
   0.59703734  0.68822028  0.55423737
   0.72284030  0.34886852  0.45166811
   0.97704563  0.36979885  0.54705002
   0.15777596  0.68440620  0.57018388
   0.63333384  0.38196695  0.50780070
   0.81994620  0.45271333  0.60620765
   0.95857820  0.08242692  0.41695300
   0.28228799  0.25095485  0.51863066
   0.24925755  0.49821676  0.46105570
   0.27304521  0.90377932  0.56774453
   0.20366815  0.74075704  0.48688872
   0.14712345  0.53125375  0.49254493
   0.22497325  0.47861436  0.55683200
   0.91141698  0.50792847  0.47371881
   0.86978818  0.75974398  0.46415352
   0.73812021  0.14801849  0.44522965
   0.22218344  0.98496506  0.40794682
   0.25201746  0.45820875  0.64907044
   0.63043855  0.93811437  0.59397848
   0.41022327  0.84424626  0.42343739
   0.91777135  0.25122216  0.50824515
   0.13254706  0.49871998  0.33227266
   0.15514768  0.35870713  0.31056042
   0.37300515  0.18609091  0.34795342
   0.03458492  0.34796978  0.63320855
   0.57268926  0.31205206  0.32009968
   0.24577118  0.82763752  0.65016123
   0.20737430  0.70358892  0.31036906
   0.27537441  0.44737517  0.36737583
   0.36535081  0.65277050  0.34222079
   0.22638085  0.11136469  0.35811888
   0.24120334  0.25126210  0.32934297
   0.50127293  0.94748549  0.45484168
   0.55077284  0.88207510  0.53426376
   0.54705869  0.70780147  0.63684068
   0.47834251  0.17417923  0.59632798
   0.26172792  0.74916456  0.56953031
   0.44444589  0.89817885  0.58309740
   0.76511043  0.67171171  0.64966721
   0.84525270  0.88703222  0.62283959
   0.64185066  0.79474886  0.62117775
   0.00762132  0.08841149  0.60307972
   0.28520546  0.05538079  0.59380894
   0.50441962  0.02434607  0.62865669
   0.42862467  0.48412280  0.70765253
   0.08322528  0.66160417  0.40641308
   0.40958091  0.81752955  0.57508685
   0.84176382  0.49663699  0.46783897
   0.01708949  0.04566591  0.39361135
   0.01470021  0.33937414  0.39108141
   0.00907918  0.16981973  0.57225787
   0.61058277  0.71353636  0.61141867
   0.21405265  0.53134166  0.50964170
   0.91506213  0.81074481  0.49625454
   0.52057854  0.16563950  0.42598659
   0.41888941  0.22247273  0.58922932
   0.08345253  0.19435595  0.40698087
   0.70189793  0.10003013  0.48732303
   0.66505935  0.95322133  0.43747644
   0.65009874  0.55921093  0.43015089
   0.19846065  0.96766610  0.46399069
   0.21410198  0.42256799  0.60354190
   0.67419052  0.86908869  0.59457714
   0.21642535  0.69670174  0.53858426
   0.36878912  0.79031160  0.45920930
   0.79778531  0.94366966  0.59560782
   0.87957719  0.96729990  0.51193423
   0.57627238  0.63023244  0.51181039
   0.58983987  0.17020937  0.52533055
   0.85812234  0.20729710  0.49517595
   0.83506885  0.65898254  0.64584130
   0.13373852  0.41550277  0.35687228
   0.79065529  0.33512312  0.44187265
   0.39917610  0.23267871  0.39600320
   0.85579624  0.80519459  0.59651556
   0.28330833  0.98888231  0.54922176
   0.02307473  0.38563139  0.50224551
   0.57455938  0.75067395  0.43556436
   0.23024095  0.80778437  0.45196954
   0.59407495  0.33807778  0.54814305
   0.97524244  0.32784112  0.60244396
   0.88890636  0.08059287  0.42420019
   0.10475576  0.25025850  0.51784052
   0.04814566  0.78822096  0.48263019
   0.23206141  0.26121215  0.56098323
   0.56140781  0.31296914  0.38122611
   0.47923485  0.68444384  0.62972323
   0.28167586  0.82539101  0.59791211
   0.20850083  0.69858372  0.37179454
   0.74009987  0.76605675  0.53583451
   0.98630442  0.04517872  0.55051452
   0.70310456  0.79200202  0.43426040
   0.78836284  0.11429892  0.57665790
   0.45631390  0.38363547  0.40928789
   0.45050603  0.98784091  0.59500463
   0.50885018  0.09351548  0.58595382
   0.24424715  0.42559019  0.42094710
   0.65852534  0.38518598  0.45034791
   0.46125914  0.37022313  0.52844692
   0.33729937  0.64512641  0.39908301
   0.80293679  0.53191092  0.57961328
   0.06920979  0.95404303  0.48050551
   0.21190758  0.19963819  0.37359659
   0.07823286  0.54916887  0.49468762
   0.55757019  0.90752397  0.47473025
   0.71808917  0.63959124  0.60961385
   0.28664212  0.26528561  0.45911077
   0.08757125  0.68014936  0.56770167
   0.35427373  0.07158909  0.57874179
   0.49446794  0.52689327  0.57417159
   0.47483698  0.54433870  0.67924626

 position of ions in cartesian coordinates  (Angst):
  12.77067215  9.77474174 19.60511045
  12.20677108 10.72564424 20.64624912
  13.19572297  8.40347405 20.14943635
  12.44217323 12.16555890 20.66059405
  17.84291535  2.87915982 17.50536361
  21.68887124  6.04982631  9.57948250
  18.57310935  4.75615001 10.03976840
  22.81522226 18.09935504  8.74523415
  14.64921175  0.33808286 10.08747787
  19.20986618  0.90951457  9.91976410
  17.55830880  3.55833369 12.31360861
  21.43522323  5.52059622 13.69513728
  13.66032332  6.51363182  8.22435231
  20.87378533  7.07283309 16.56559959
  13.66087484  7.51066024 16.50348145
  13.89937348 16.77494949 15.54037899
   0.79394874  7.14462270 17.51119968
  21.89589338  8.60211669 12.20777585
  17.46806539 10.60990927 11.35790489
  18.67285550  7.94246659 17.07093802
  13.83846347 11.30523625 10.16284657
  16.81946503 12.70510107 10.30871170
  19.69247867 10.82944088 11.28015755
   0.11154425 11.94156933  9.61828518
  19.39294954 13.90878407 12.57986315
  20.60016700 11.85524807 19.35010308
  12.17364643  0.73841562 11.33679820
   5.22293275  0.64038107 10.57067472
   5.06558822  5.31016263  8.58198589
   3.68730349  6.97649684  7.50000000
   7.99605455  3.81940544  8.89228530
   5.21406665  1.82920834  8.67629559
  11.98621752 15.92624003 14.70346312
   9.05081098  5.44900480 17.42539868
   5.73733554  2.68785105 16.07281099
   7.38347683  9.82751530 11.89413327
   9.57419369  8.95041833 10.90632902
   9.32938927 15.37219961 10.45189795
   5.71709332 12.87720376  7.91249741
   7.29826932  8.58329756  9.92688859
   9.49267817 11.58787005  9.10861924
   3.26254231  9.84268608  9.46104865
  13.88920341 13.64839014  9.47364424
  10.98005707 16.61013129 11.93160111
   2.84819360  6.87547059 16.44025662
   1.73095257 13.03580032 17.36943329
   5.76023448  7.93429601 18.33379173
   5.79114647 15.82335391 17.98599719
  13.61774308 10.25540295 19.07880912
  11.33322502 10.36775446 21.20492555
  14.01720863  8.50621789 20.88206609
  12.35047462  7.90551659 20.64774911
  13.54158811  7.75228691 19.33337841
  13.00700938 11.03746134 21.50080374
  13.30159668 12.57306285 20.12893016
  11.78180266 12.83550558 21.20775277
   8.63740362 12.74899635 11.80179838
   8.11940335 10.13371715 11.30144811
  20.14732400 11.26658214 18.72868887
   8.17968247  0.21423843 14.26002029
   0.78163067 17.88944575 14.21388905
  14.89790566  2.42919560 13.15609244
   1.60709516  1.94711409 10.62190669
  10.57955332  3.34782959 11.30707087
  18.86679123  4.87160553 12.98914499
  22.79528878  4.29549132 16.09050284
   6.43261122  6.42138249 12.05751853
  13.02497128 15.04561295 11.87575437
   9.18495441  0.43389607 16.66326738
   4.15590840  7.34186120 10.89510594
  20.27490875 13.39983149 17.13585567
  20.26706433  0.40520541 12.55556607
   7.04790320 14.78911669 12.31057251
   9.87045805  5.73421333 10.20482654
  18.98335984  9.43010108 13.98009492
  23.01960921  2.30145069 14.00897484
  12.39509474  9.07390674 16.78076629
   0.80854198 17.67059137 11.54385891
  22.54593219  6.49427402  9.44298747
   1.63005096  7.09065222 10.11814055
   4.87647100 14.20393591 10.62861051
   0.91072893  8.59464512 13.41772355
   5.58106443  6.18535596 15.80647411
   9.29148869  4.51644920 17.31672676
  10.79002971 10.92814760 16.12038883
  21.29195641 14.56572491 14.98615346
  20.34739459  2.95787901 11.88993046
  13.40476402 13.09287863 10.11168720
   3.33439013  3.88355087 10.10739962
   8.21619554 14.85023317 16.32164841
  21.32759690 16.31330728 12.98949491
   1.43600223 10.72877939 11.88926245
  16.58313365 11.06030463 11.28987623
   1.76725442 15.80154966 12.98450890
  16.39878711 15.99633320 11.63069310
  17.10492418  1.87379986 14.59580915
  21.51331933  6.47202867 16.99084490
  17.22036313 16.44936020 16.47945234
  14.63491423 10.55703168 13.07549710
  13.03010146 12.41099800 12.56123752
   9.98440666  5.42316205 14.91876842
  22.90303759 14.19667544 12.81787194
  15.31190169 11.76072073 17.04333563
   9.29188715 14.51021850 13.85898910
  14.10975474 10.38073831 10.36813464
  16.82864715 12.44337264 14.98120964
   3.42435211  7.63100674 16.64592887
   1.53463168 10.92958860 14.57445707
  19.16284912 17.02745165 14.42047121
  19.38959778  7.44001838 12.14868300
  12.36369609  6.31915984 14.24424268
  17.23931483 10.04396611 15.99295863
  13.05025010  4.12466491 10.61647095
  18.86866258  5.64651295 10.30420244
   5.55892333  0.15284577 13.65458756
  16.21861425 15.07745208 14.54837071
  21.62160639  0.07778759 14.86976018
  12.30818899  6.75858697 10.71452528
  10.96831351  0.76396257 14.69222551
  19.62036930  2.71476655 14.50916605
  12.59301152  3.10962891 13.07168996
   8.19848185  4.38158106 11.81890631
   0.27532438  0.31889337  9.01248080
  10.80777764 11.86937364 18.42890240
  15.33358375 17.76934745 10.19493214
   1.78612593 13.43164437 11.71794928
  10.65962924  8.26411682 14.87546701
  16.83785811 13.69249221 10.20446890
  10.51773520 13.62764824 16.10190324
  17.61819454 13.85383871 12.80442605
  18.25544930  3.18947327 16.68503600
  23.25384464  6.58158514 12.05458163
  12.38481268 10.29581333 14.22707723
  19.12182067 10.04361594 11.38355200
   5.54101915  3.62525081 16.26082968
   4.76497818 16.05333538 12.64952801
   5.62406631 11.13041415 14.04520954
   1.42817733 12.33303009 16.77506606
   1.07865368 11.91526714  9.52151395
  18.76382896  0.61167341 16.28698024
  12.59506368  1.50191281 10.87439573
  14.14166582  6.69566590 16.24594471
  20.16990973  1.07395004  9.92550906
   2.22199659  3.70047811 12.55674536
   4.01662108  4.68466821 14.26751987
  15.00637423 13.76530097 12.22697399
  10.22576747  8.42551174 10.38808912
  13.44253140  2.02299838 15.33478084
   3.54535369 11.75328740 10.45651017
   6.26813510 11.91510113 10.54651395
  10.30702051  6.83862961 12.64390410
   5.57211440  3.87241773 11.55719116
   1.70516142  3.69671446 15.11114365
  19.76532992 10.87420938 16.11397701
  14.54261460  6.07285684 11.04652184
  14.10921452 17.15556596 12.56053950
   0.73477264  4.53889327 10.45741115
  14.25607093  4.52160167 14.73399295
   3.10901352 18.00414686 12.89022683
   1.86819200  6.07193662 13.77239821
   8.72970163  2.85005854 15.31176531
   1.54406157 13.61581822 14.39996792
  15.60335582  8.52728779 11.56015827
  18.70225292 14.21362949 15.17928456
  16.47777184  0.22456388 12.64014391
  13.97741693 12.47140271 14.89976625
  16.92262721  6.32192921 12.14235921
  22.87390312  6.70121258 14.70654609
   3.69373945 12.40228699 15.32846233
  14.82716522  6.92171361 13.65139239
  19.19600211  8.20372548 16.29690234
  22.44155659  1.49367766 11.20910044
   6.60872728  4.54761238 13.94253801
   5.83544193  9.02830396 12.39472924
   6.39234188 16.37759920 15.26288431
   4.76813504 13.42343385 13.08920785
   3.44435051  9.62697504 13.24126574
   5.26691492  8.67308428 14.96951870
  21.33745138  9.20429214 12.73515651
  20.36286723 13.76750071 12.47800922
  17.28034963  2.68227812 11.96927179
   5.20160189 17.84878525 10.96698378
   5.90005495  8.30330936 17.44919855
  14.75938267 16.99979273 15.96814116
   9.60385771 15.29878658 11.38342242
  21.48621551  4.55245637 13.66334053
   3.10309823  9.03742302  8.93260776
   3.63220806  6.50021683  8.34890949
   8.73253334  3.37219755  9.35415932
   0.80967765  6.30564288 17.02277756
  13.40739700  5.65476936  8.60535697
   5.75382140 14.99781568 17.47852264
   4.85490080 12.74990155  8.34376522
   6.44687148  8.10699146  9.87629901
   8.55333550 11.82900896  9.20004704
   5.29986878  2.01806603  9.62744117
   5.64688233  4.55318002  8.85384768
  11.73544815 17.16960912 12.22767567
  12.89430530 15.98429190 14.36280844
  12.80735227 12.82623823 17.12042148
  11.19861739  3.15634309 16.03130367
   6.12738942 13.57578855 15.31089211
  10.40505364 16.27611175 15.67562099
  17.91222565 12.17224709 17.46524180
  19.78846000 16.07412096 16.74402490
  15.02655493 14.40183233 16.69934923
   0.17842496  1.60212549 16.21281315
   6.67702906  1.00356848 15.96358345
  11.80911621  0.44118085 16.90040815
  10.03465833  8.77290404 19.02408244
   1.94841153 11.98908596 10.92575188
   9.58881944 14.81464661 15.46027053
  19.70678075  8.99967650 12.57708649
   0.40008717  0.82752277 10.58159830
   0.34415087  6.14987929 10.51358498
   0.21255541  3.07734353 15.38421814
  14.29453300 12.93016151 16.43699215
   5.01124971  9.62856807 13.70088467
  21.42278905 14.69169878 13.34099278
  12.18741762  3.00159257 11.45195358
   9.80674342  4.03148099 15.84046765
   1.95373172  3.52197018 10.94101594
  16.43233932  1.81266960 13.10088356
  15.56990048 17.27354967 11.76083937
  15.21965321 10.13359373 11.56390395
   4.64622069 17.53530673 12.47363180
   5.01240463  7.65745475 16.22523821
  15.78367298 15.74896206 15.98423510
   5.06679755 12.62509725 14.47895807
   8.63383069 14.32142384 12.34509184
  18.67718699 17.10046152 16.01194329
  20.59204081 17.52867077 13.76251549
  13.49128251 11.42059147 13.75918643
  13.80891485  3.08440438 14.12265363
  20.08975493  3.75647993 13.31199648
  19.55004297 11.94157868 17.36238832
   3.13099191  7.52942423  9.59392828
  18.51026388  6.07284540 11.87902451
   9.34522920  4.21642612 10.64589911
  20.03529780 14.59112203 16.03634640
   6.63261489 17.91977071 14.76492998
   0.54020936  6.98811771 13.50205012
  13.45117902 13.60314055 11.70943634
   5.39023881 14.63805193 12.15046292
  13.90806360  6.12638763 14.73593039
  22.83168797  5.94088670 16.19572190
  20.81044864  1.46044249 11.40392910
   2.45246790  4.53499355 13.92129643
   1.12715225 14.28353886 12.97472440
   5.43285808  4.73348728 15.08111788
  13.14328356  5.67138795 10.24864117
  11.21950825 12.40296895 16.92908043
   6.59439647 14.95710606 16.07389035
   4.88127424 12.65920104  9.99508876
  17.32669611 13.88189586 14.40503551
  23.09066339  0.81869437 14.79968355
  16.46058793 14.35205634 11.67438144
  18.45659461  2.07123784 15.50250560
  10.68289909  6.95194918 11.00303640
  10.54692950 17.90089911 15.99572759
  11.91284138  1.69461619 15.75241129
   5.71814202  7.71222076 11.31647527
  15.41693082  6.98004644 12.10686792
  10.79867364  6.70890105 14.20643234
   7.89661487 11.69048859 10.72869482
  18.79778962  9.63888374 15.58195618
   1.62029077 17.28843975 12.91760565
   4.96103076  3.61769098 10.04353415
   1.83153245  9.95161915 13.29886860
  13.05343995 16.44545689 12.76234739
  16.81139722 11.59018434 16.38847257
   6.71066321  4.80730339 12.34244318
   2.05015626 12.32514773 15.26173194
   8.29400671  1.29728294 15.55852760
  11.57613455  9.54795771 15.43566530
  11.11654838  9.86409056 18.26042628



--------------------------------------------------------------------------------------------------------


 k-point  1 :   0.0000 0.0000 0.0000  plane waves:  289505
 k-point  2 :   0.3333 0.0000 0.0000  plane waves:  289422
 k-point  3 :   0.0000 0.3333 0.0000  plane waves:  289550
 k-point  4 :   0.3333 0.3333 0.0000  plane waves:  289551
 k-point  5 :  -0.3333 0.3333 0.0000  plane waves:  289551

 maximum and minimum number of plane-waves per node :     72451    72309

 maximum number of plane-waves:    289551
 maximum index in each direction: 
   IXMAX=   43   IYMAX=   33   IZMAX=   49
   IXMIN=  -43   IYMIN=  -33   IZMIN=  -49


 real space projection operators:
  total allocation   :      13780.16 KBytes
  max/ min on nodes  :       3447.47       3442.39


 parallel 3D FFT for wavefunctions:
    minimum data exchange during FFTs selected (reduces bandwidth)
 parallel 3D FFT for charge:
    minimum data exchange during FFTs selected (reduces bandwidth)


 total amount of memory used by VASP MPI-rank0   389758. kBytes
=======================================================================

   base      :      30000. kBytes
   nonlr-proj:      16949. kBytes
   fftplans  :      22890. kBytes
   grid      :      38557. kBytes
   one-center:       1073. kBytes
   wavefun   :     280289. kBytes

     INWAV:  cpu time    0.0000: real time    0.0000
 Broyden mixing: mesh for mixing (old mesh)
   NGX = 85   NGY = 67   NGZ = 99
  (NGX  =256   NGY  =200   NGZ  =300)
  gives a total of 563805 points

 initial charge density was supplied:
 charge density of overlapping atoms calculated
 number of electron    1258.0000000 magnetization 
 keeping initial charge density in first step


--------------------------------------------------------------------------------------------------------


 Maximum index for non-local projection operator          649
 Maximum index for augmentation-charges          407 (set IRDMAX)


--------------------------------------------------------------------------------------------------------


 First call to EWALD:  gamma=   0.079
 Maximum number of real-space cells 3x 3x 2
 Maximum number of reciprocal cells 3x 2x 3

    FEWALD:  cpu time    0.0198: real time    0.0198


--------------------------------------- Iteration      1(   1)  ---------------------------------------


    POTLOK:  cpu time    0.1801: real time    0.2061
    SETDIJ:  cpu time    0.3604: real time    0.3619
     EDDAV:  cpu time   47.6048: real time   47.8053
       DOS:  cpu time    0.0021: real time    0.0022
    --------------------------------------------
      LOOP:  cpu time   48.1474: real time   48.3755

 eigenvalue-minimisations  :  8592
 total energy-change (2. order) : 0.1283773E+05  (-0.4945698E+05)
 number of electron    1258.0000000 magnetization 
 augmentation part     1258.0000000 magnetization 

 DIPCOR: dipole corrections for dipol
 direction  3 min pos    70,
 dipolmoment           0.000000      0.000000      1.152746 electrons x Angstroem
 Tr[quadrupol]    -95316.734855

 energy correction for charged system         0.000000 eV
 dipol+quadrupol energy correction           -0.010804 eV
 added-field ion interaction        143.280438 eV  (added to PSCEN)


 Free energy of the ion-electron system (eV)
  ---------------------------------------------------
  alpha Z        PSCENC =       633.43258703
  Ewald energy   TEWEN  =    309453.89802911
  -Hartree energ DENC   =   -371681.22883327
  -exchange      EXHF   =         0.00000000
  -V(xc)+E(xc)   XCENC  =      3778.55656653
  PAW double counting   =     59955.48764796   -58973.29898038
  entropy T*S    EENTRO =        -1.64945532
  eigenvalues    EBANDS =     -5034.70757179
  atomic energy  EATOM  =     74707.24229009
  Solvation  Ediel_sol  =         0.00000000
  ---------------------------------------------------
  free energy    TOTEN  =     12837.73227995 eV

  energy without entropy =    12839.38173527  energy(sigma->0) =    12838.55700761


--------------------------------------------------------------------------------------------------------




--------------------------------------- Iteration      1(   2)  ---------------------------------------


     EDDAV:  cpu time   57.1258: real time   57.3606
       DOS:  cpu time    0.0018: real time    0.0018
    --------------------------------------------
      LOOP:  cpu time   57.1276: real time   57.3624

 eigenvalue-minimisations  : 10784
 total energy-change (2. order) :-0.1222590E+05  (-0.1183661E+05)
 number of electron    1258.0000000 magnetization 
 augmentation part     1258.0000000 magnetization 

 DIPCOR: dipole corrections for dipol
 direction  3 min pos    70,
 dipolmoment           0.000000      0.000000      1.152746 electrons x Angstroem
 Tr[quadrupol]    -95316.734855

 energy correction for charged system         0.000000 eV
 dipol+quadrupol energy correction           -0.010804 eV
 added-field ion interaction        143.280438 eV  (added to PSCEN)


 Free energy of the ion-electron system (eV)
  ---------------------------------------------------
  alpha Z        PSCENC =       633.43258703
  Ewald energy   TEWEN  =    309453.89802911
  -Hartree energ DENC   =   -371681.22883327
  -exchange      EXHF   =         0.00000000
  -V(xc)+E(xc)   XCENC  =      3778.55656653
  PAW double counting   =     59955.48764796   -58973.29898038
  entropy T*S    EENTRO =        -0.00000001
  eigenvalues    EBANDS =    -17262.25581727
  atomic energy  EATOM  =     74707.24229009
  Solvation  Ediel_sol  =         0.00000000
  ---------------------------------------------------
  free energy    TOTEN  =       611.83348978 eV

  energy without entropy =      611.83348979  energy(sigma->0) =      611.83348978


--------------------------------------------------------------------------------------------------------




--------------------------------------- Iteration      1(   3)  ---------------------------------------


     EDDAV:  cpu time   48.7423: real time   48.9489
       DOS:  cpu time    0.0016: real time    0.0016
    --------------------------------------------
      LOOP:  cpu time   48.7438: real time   48.9505

 eigenvalue-minimisations  :  8896
 total energy-change (2. order) :-0.2627894E+04  (-0.2618562E+04)
 number of electron    1258.0000000 magnetization 
 augmentation part     1258.0000000 magnetization 

 DIPCOR: dipole corrections for dipol
 direction  3 min pos    70,
 dipolmoment           0.000000      0.000000      1.152746 electrons x Angstroem
 Tr[quadrupol]    -95316.734855

 energy correction for charged system         0.000000 eV
 dipol+quadrupol energy correction           -0.010804 eV
 added-field ion interaction        143.280438 eV  (added to PSCEN)


 Free energy of the ion-electron system (eV)
  ---------------------------------------------------
  alpha Z        PSCENC =       633.43258703
  Ewald energy   TEWEN  =    309453.89802911
  -Hartree energ DENC   =   -371681.22883327
  -exchange      EXHF   =         0.00000000
  -V(xc)+E(xc)   XCENC  =      3778.55656653
[...]
    0.0000000000E+00    0.0000000000E+00    0.0000000000E+00
    1.2446871034E-03   -7.4480490059E-04   -3.1445332276E-04
    0.0000000000E+00    0.0000000000E+00    0.0000000000E+00
    8.0124268945E-04   -5.1358534671E-03    2.9213655427E-05
    1.7999418438E-03    1.8043131486E-03    2.6999524509E-04
    0.0000000000E+00    0.0000000000E+00    0.0000000000E+00
    0.0000000000E+00    0.0000000000E+00    0.0000000000E+00
    6.8837609049E-03    1.4353686491E-02    1.3221446278E-02
    0.0000000000E+00    0.0000000000E+00    0.0000000000E+00
   -9.1810572675E-03   -5.7370733631E-03    1.7143467349E-02
    0.0000000000E+00    0.0000000000E+00    0.0000000000E+00
    0.0000000000E+00    0.0000000000E+00    0.0000000000E+00
    0.0000000000E+00    0.0000000000E+00    0.0000000000E+00
    0.0000000000E+00    0.0000000000E+00    0.0000000000E+00
   -2.7291629399E-03   -5.9868419416E-03    1.8619797733E-03
    0.0000000000E+00    0.0000000000E+00    0.0000000000E+00
    1.0135900319E-03    2.2850930665E-03   -1.0609542892E-03
    4.1308310631E-04    2.3031842956E-03   -2.1822364203E-03
   -5.1319432540E-03   -7.3643450385E-03    9.8635766189E-03
   -4.4385879743E-02    4.2925913166E-02    1.2976833781E-01
 Dimer: -----------------
 Dimer: Itr    1 Rot    0

 Dimer: Central Point
 Dimer: F0      0.170318

 Dimer: Projection
 Dimer: N*F0   1.5095917887596158E-003
 Dimer: F0sq   2.9008199032267725E-002
 Dimer: Feffsq    2.2788673686904573E-006
 Dimer: Feff
   -1.2601195799E-04    9.9806030094E-05   -6.3085629950E-05
    3.9081254672E-04    2.5987060071E-04    5.7069182433E-04
   -5.1047949147E-05    6.4235602860E-05   -2.7392386336E-05
   -3.5963985183E-04    3.6045596160E-04   -4.6534313208E-04
   -2.7880777332E-07    3.3384532876E-07   -7.6752911046E-07
   -0.0000000000E+00   -0.0000000000E+00   -0.0000000000E+00
   -0.0000000000E+00   -0.0000000000E+00   -0.0000000000E+00
   -0.0000000000E+00   -0.0000000000E+00   -0.0000000000E+00
   -0.0000000000E+00   -0.0000000000E+00   -0.0000000000E+00
   -0.0000000000E+00   -0.0000000000E+00   -0.0000000000E+00
   -0.0000000000E+00   -0.0000000000E+00   -0.0000000000E+00
   -2.1737353316E-06   -2.6206385029E-07   -5.6908750429E-07
   -0.0000000000E+00   -0.0000000000E+00   -0.0000000000E+00
   -2.9895476696E-06    1.3969016141E-06   -9.9036616333E-07
    2.5737058636E-06   -4.9069563985E-06    2.1763963666E-06
   -1.9746511312E-06   -6.5121374067E-07   -2.2730312706E-07
    1.0235642400E-08    2.3874482070E-06    2.4355361138E-06
   -0.0000000000E+00   -0.0000000000E+00   -0.0000000000E+00
   -0.0000000000E+00   -0.0000000000E+00   -0.0000000000E+00
   -5.2548544878E-06   -3.9540293897E-06    1.0256147735E-05
   -0.0000000000E+00   -0.0000000000E+00   -0.0000000000E+00
   -0.0000000000E+00   -0.0000000000E+00   -0.0000000000E+00
   -0.0000000000E+00   -0.0000000000E+00   -0.0000000000E+00
   -0.0000000000E+00   -0.0000000000E+00   -0.0000000000E+00
   -0.0000000000E+00   -0.0000000000E+00   -0.0000000000E+00
   -2.9851729867E-06   -3.6855554792E-06   -1.4435973837E-06
   -0.0000000000E+00   -0.0000000000E+00   -0.0000000000E+00
   -0.0000000000E+00   -0.0000000000E+00   -0.0000000000E+00
   -0.0000000000E+00   -0.0000000000E+00   -0.0000000000E+00
   -0.0000000000E+00   -0.0000000000E+00   -0.0000000000E+00
   -0.0000000000E+00   -0.0000000000E+00   -0.0000000000E+00
   -0.0000000000E+00   -0.0000000000E+00   -0.0000000000E+00
   -2.4100206416E-06    1.5479660857E-06   -1.0961582451E-06
   -1.3704454623E-06   -2.4254835992E-06    1.9448302550E-06
   -1.7602935978E-06    6.5924964189E-07   -3.8139439434E-07
   -0.0000000000E+00   -0.0000000000E+00   -0.0000000000E+00
   -0.0000000000E+00   -0.0000000000E+00   -0.0000000000E+00
   -0.0000000000E+00   -0.0000000000E+00   -0.0000000000E+00
   -0.0000000000E+00   -0.0000000000E+00   -0.0000000000E+00
   -0.0000000000E+00   -0.0000000000E+00   -0.0000000000E+00
   -0.0000000000E+00   -0.0000000000E+00   -0.0000000000E+00
   -0.0000000000E+00   -0.0000000000E+00   -0.0000000000E+00
   -0.0000000000E+00   -0.0000000000E+00   -0.0000000000E+00
   -0.0000000000E+00   -0.0000000000E+00   -0.0000000000E+00
   -4.4832799172E-06   -2.2882272207E-06   -3.8227127026E-07
   -1.6731746065E-06   -7.1083907508E-07    4.6570362225E-07
   -5.1632522811E-06   -1.2600575059E-05    3.6580657250E-05
   -1.6860611780E-06   -1.7753904490E-06    1.4043393297E-07
   -2.4019779651E-05    9.2272604340E-06   -8.0460812121E-06
    1.4443178968E-05    1.3995185420E-04   -3.4923947971E-05
   -3.0439339514E-05    3.8166378251E-05   -2.3190485189E-05
   -9.4922668015E-06    1.0188474916E-05   -5.8912834142E-06
   -1.8319801793E-05    2.8399168862E-05   -2.5894950707E-06
    7.8782643971E-05   -9.5664815790E-04    8.9840007906E-05
    2.5759636424E-05    1.1737900099E-04    1.1107211182E-05
   -6.8289985949E-05    1.7064348168E-04   -3.2256009038E-05
   -0.0000000000E+00   -0.0000000000E+00   -0.0000000000E+00
   -0.0000000000E+00   -0.0000000000E+00   -0.0000000000E+00
   -3.2139252291E-06    1.1293638170E-06   -7.2701070204E-06
    2.2518443939E-05   -5.6186779397E-05    4.0625581742E-05
   -1.7729825097E-06    9.8816811395E-07    9.3295739785E-08
   -0.0000000000E+00   -0.0000000000E+00   -0.0000000000E+00
   -0.0000000000E+00   -0.0000000000E+00   -0.0000000000E+00
   -0.0000000000E+00   -0.0000000000E+00   -0.0000000000E+00
   -0.0000000000E+00   -0.0000000000E+00   -0.0000000000E+00
   -1.3497673076E-06    4.5577488122E-06   -7.3946860420E-07
   -0.0000000000E+00   -0.0000000000E+00   -0.0000000000E+00
   -0.0000000000E+00   -0.0000000000E+00   -0.0000000000E+00
   -2.3653773751E-06   -1.7728175343E-06    2.1595368605E-06
   -0.0000000000E+00   -0.0000000000E+00   -0.0000000000E+00
    3.3274696887E-05   -5.8440995349E-05    3.8793086079E-05
   -0.0000000000E+00   -0.0000000000E+00   -0.0000000000E+00
   -0.0000000000E+00   -0.0000000000E+00   -0.0000000000E+00
   -0.0000000000E+00   -0.0000000000E+00   -0.0000000000E+00
   -6.9735341848E-05    1.6200341735E-05   -1.9538965923E-05
   -1.5194525451E-06   -1.2040238670E-07   -4.0455874921E-07
   -1.9378310532E-06    2.8623496647E-06    2.3624962173E-05
   -0.0000000000E+00   -0.0000000000E+00   -0.0000000000E+00
   -0.0000000000E+00   -0.0000000000E+00   -0.0000000000E+00
   -0.0000000000E+00   -0.0000000000E+00   -0.0000000000E+00
   -0.0000000000E+00   -0.0000000000E+00   -0.0000000000E+00
   -0.0000000000E+00   -0.0000000000E+00   -0.0000000000E+00
   -6.8928431684E-06    2.9459099849E-06    4.2608240302E-06
   -4.8173254580E-07   -2.2355865903E-06   -6.3615334268E-06
    4.1004747833E-05   -4.3175728985E-05    1.2396912575E-04
   -1.4475147439E-06   -9.2637405851E-07    6.6081382118E-07
   -0.0000000000E+00   -0.0000000000E+00   -0.0000000000E+00
   -0.0000000000E+00   -0.0000000000E+00   -0.0000000000E+00
   -0.0000000000E+00   -0.0000000000E+00   -0.0000000000E+00
    3.0054663846E-07   -4.5088101893E-06    1.1555359070E-06
   -0.0000000000E+00   -0.0000000000E+00   -0.0000000000E+00
   -0.0000000000E+00   -0.0000000000E+00   -0.0000000000E+00
   -0.0000000000E+00   -0.0000000000E+00   -0.0000000000E+00
   -0.0000000000E+00   -0.0000000000E+00   -0.0000000000E+00
   -0.0000000000E+00   -0.0000000000E+00   -0.0000000000E+00
   -1.4961548523E-06    1.1149994725E-06   -5.0906230490E-07
   -3.0704639221E-06   -2.1402813531E-06    1.1114636519E-06
   -1.4634138455E-06    1.0126358506E-08   -1.2801748553E-06
   -0.0000000000E+00   -0.0000000000E+00   -0.0000000000E+00
   -0.0000000000E+00   -0.0000000000E+00   -0.0000000000E+00
   -2.0298336839E-06    2.9675391863E-07   -2.2644526018E-06
   -0.0000000000E+00   -0.0000000000E+00   -0.0000000000E+00
   -8.9672581739E-06   -2.3552071547E-06   -2.8779431959E-06
    9.7856985742E-06   -1.1802601905E-05    1.0158254218E-05
   -0.0000000000E+00   -0.0000000000E+00   -0.0000000000E+00
   -3.0529257149E-06    3.5285597015E-06   -5.5885052597E-06
   -6.9322400724E-06    5.4628584060E-06   -6.6836373234E-07
   -1.0663056195E-08   -2.7676911782E-06   -4.8729868742E-07
   -2.9454340385E-06    4.2027524640E-07   -1.0085336473E-06
   -0.0000000000E+00   -0.0000000000E+00   -0.0000000000E+00
   -3.9941373325E-06    8.4804700237E-06    3.1191650320E-06
   -2.2962382573E-07   -3.1382065139E-06   -2.4826488401E-06
   -0.0000000000E+00   -0.0000000000E+00   -0.0000000000E+00
   -0.0000000000E+00   -0.0000000000E+00   -0.0000000000E+00
   -0.0000000000E+00   -0.0000000000E+00   -0.0000000000E+00
   -1.4973113059E-06   -1.4174144646E-06    3.7549245110E-07
   -1.2157505925E-06    7.3490386078E-07   -1.2627400864E-06
   -0.0000000000E+00   -0.0000000000E+00   -0.0000000000E+00
   -2.4064064997E-07   -8.9127933914E-08   -4.9248354380E-07
   -2.8092651352E-06   -1.3046757715E-06    6.6195807781E-07
   -0.0000000000E+00   -0.0000000000E+00   -0.0000000000E+00
   -0.0000000000E+00   -0.0000000000E+00   -0.0000000000E+00
   -0.0000000000E+00   -0.0000000000E+00   -0.0000000000E+00
    1.4124053675E-04   -1.8674541488E-04    1.2494287230E-04
   -0.0000000000E+00   -0.0000000000E+00   -0.0000000000E+00
   -0.0000000000E+00   -0.0000000000E+00   -0.0000000000E+00
   -7.8161588879E-06    8.1031776471E-06   -4.7194701700E-07
   -0.0000000000E+00   -0.0000000000E+00   -0.0000000000E+00
   -2.6522247093E-05   -4.8368155046E-05    5.8741465346E-05
   -0.0000000000E+00   -0.0000000000E+00   -0.0000000000E+00
   -2.8520921658E-06    1.0309737924E-07   -3.0427266842E-06
   -0.0000000000E+00   -0.0000000000E+00   -0.0000000000E+00
    3.5901016073E-06    3.1697684964E-05   -7.7168085395E-05
   -0.0000000000E+00   -0.0000000000E+00   -0.0000000000E+00
   -2.4093967264E-06    2.6261344526E-06   -2.2441441931E-06
   -0.0000000000E+00   -0.0000000000E+00   -0.0000000000E+00
    2.8757818085E-06    3.3107683076E-05    5.2945080550E-06
   -1.6327282250E-06   -1.2850509037E-06   -1.8499113787E-07
   -0.0000000000E+00   -0.0000000000E+00   -0.0000000000E+00
   -1.4104193376E-06   -1.6586074067E-06   -1.6525424214E-06
   -0.0000000000E+00   -0.0000000000E+00   -0.0000000000E+00
   -2.0968207969E-07   -7.3812498328E-07   -1.9891410061E-06
   -0.0000000000E+00   -0.0000000000E+00   -0.0000000000E+00
   -0.0000000000E+00   -0.0000000000E+00   -0.0000000000E+00
    3.4720835657E-07   -5.3600137299E-07   -7.0035795817E-07
   -0.0000000000E+00   -0.0000000000E+00   -0.0000000000E+00
   -0.0000000000E+00   -0.0000000000E+00   -0.0000000000E+00
   -1.1639868732E-06    9.8145193253E-07   -6.8228763725E-07
   -0.0000000000E+00   -0.0000000000E+00   -0.0000000000E+00
   -0.0000000000E+00   -0.0000000000E+00   -0.0000000000E+00
   -0.0000000000E+00   -0.0000000000E+00   -0.0000000000E+00
   -0.0000000000E+00   -0.0000000000E+00   -0.0000000000E+00
   -1.4328752442E-06    1.2492282660E-06   -3.2276552309E-07
    4.4297204213E-05    2.8637165618E-05    1.2675494524E-05
   -0.0000000000E+00   -0.0000000000E+00   -0.0000000000E+00
   -0.0000000000E+00   -0.0000000000E+00   -0.0000000000E+00
   -0.0000000000E+00   -0.0000000000E+00   -0.0000000000E+00
   -4.2607147249E-06    1.7270836226E-06   -1.4636817229E-06
   -0.0000000000E+00   -0.0000000000E+00   -0.0000000000E+00
    2.4885744466E-06   -4.9520259037E-06   -2.7660459351E-06
   -3.5701939716E-07    1.0876691711E-06   -1.9987987328E-06
    2.8803349413E-05    2.4388510691E-05   -1.6032077774E-06
   -0.0000000000E+00   -0.0000000000E+00   -0.0000000000E+00
    5.1787415480E-06   -5.5877386762E-06    8.8441824012E-06
   -0.0000000000E+00   -0.0000000000E+00   -0.0000000000E+00
    5.0846308574E-05    1.2941518670E-05   -3.2543378282E-05
   -0.0000000000E+00   -0.0000000000E+00   -0.0000000000E+00
   -1.8414458228E-05   -1.3251588034E-05   -5.6707778484E-05
   -4.4826857552E-06    9.3540551228E-07   -1.2140632472E-06
   -0.0000000000E+00   -0.0000000000E+00   -0.0000000000E+00
   -6.5722135089E-07   -2.1710239092E-06    3.7608940466E-06
   -0.0000000000E+00   -0.0000000000E+00   -0.0000000000E+00
   -2.0507918325E-06    5.8300093157E-07    2.9492156809E-06
   -0.0000000000E+00   -0.0000000000E+00   -0.0000000000E+00
    7.3063171584E-09   -1.1964969740E-07   -2.5078294795E-06
   -0.0000000000E+00   -0.0000000000E+00   -0.0000000000E+00
   -0.0000000000E+00   -0.0000000000E+00   -0.0000000000E+00
    3.7049149844E-06    2.7626904486E-05    1.2989848294E-05
   -0.0000000000E+00   -0.0000000000E+00   -0.0000000000E+00
   -0.0000000000E+00   -0.0000000000E+00   -0.0000000000E+00
   -0.0000000000E+00   -0.0000000000E+00   -0.0000000000E+00
   -0.0000000000E+00   -0.0000000000E+00   -0.0000000000E+00
    5.6731891455E-05    1.9355323217E-05    4.0880250734E-05
   -2.3404962851E-06    2.6881967390E-07   -1.5660659678E-06
   -0.0000000000E+00   -0.0000000000E+00   -0.0000000000E+00
   -0.0000000000E+00   -0.0000000000E+00   -0.0000000000E+00
   -0.0000000000E+00   -0.0000000000E+00   -0.0000000000E+00
   -0.0000000000E+00   -0.0000000000E+00   -0.0000000000E+00
   -0.0000000000E+00   -0.0000000000E+00   -0.0000000000E+00
   -6.3461025835E-06   -2.3692460498E-06    3.8199940605E-06
   -0.0000000000E+00   -0.0000000000E+00   -0.0000000000E+00
   -8.8117926222E-07   -1.4164961495E-06   -2.5793017276E-06
   -0.0000000000E+00   -0.0000000000E+00   -0.0000000000E+00
   -0.0000000000E+00   -0.0000000000E+00   -0.0000000000E+00
   -0.0000000000E+00   -0.0000000000E+00   -0.0000000000E+00
   -0.0000000000E+00   -0.0000000000E+00   -0.0000000000E+00
   -0.0000000000E+00   -0.0000000000E+00   -0.0000000000E+00
   -0.0000000000E+00   -0.0000000000E+00   -0.0000000000E+00
   -1.1169859550E-06   -4.4557244036E-06   -3.1167615375E-07
   -4.0444040787E-06   -1.0194555433E-05   -7.7937468546E-06
   -2.9861884592E-06    1.4666530704E-06   -3.1142049068E-06
    8.2884632506E-07   -3.4975393267E-07   -4.8670885680E-07
   -1.5570888445E-05    2.9775780506E-05   -5.0758669032E-05
    1.3950867118E-06    7.9078855744E-06   -6.9188236673E-06
   -1.7165928126E-06   -1.7107171897E-07    1.2142816336E-06
   -7.3073483051E-06   -1.6839567554E-06   -2.3598617295E-06
   -1.3710673893E-06    2.2462679662E-07   -5.8021624896E-07
   -1.9029032234E-06    2.4097915748E-06   -4.8159591675E-07
   -1.0822267731E-06   -7.0841179456E-07   -6.4564405337E-07
    5.4220197377E-05    3.8203725562E-05   -5.1189435651E-05
   -0.0000000000E+00   -0.0000000000E+00   -0.0000000000E+00
    2.6297633136E-06   -3.3862291305E-06    8.2343866185E-06
   -0.0000000000E+00   -0.0000000000E+00   -0.0000000000E+00
   -0.0000000000E+00   -0.0000000000E+00   -0.0000000000E+00
   -0.0000000000E+00   -0.0000000000E+00   -0.0000000000E+00
   -1.9137447573E-06   -1.5249331163E-06   -5.3406340839E-07
    5.9232263160E-06   -4.0381453257E-06   -9.3121368938E-06
   -2.8639319552E-06    4.4034762125E-07    2.4427524385E-06
   -0.0000000000E+00   -0.0000000000E+00   -0.0000000000E+00
   -0.0000000000E+00   -0.0000000000E+00   -0.0000000000E+00
   -1.5379835832E-06   -4.2988918239E-06    2.9972400455E-06
   -0.0000000000E+00   -0.0000000000E+00   -0.0000000000E+00
   -0.0000000000E+00   -0.0000000000E+00   -0.0000000000E+00
   -0.0000000000E+00   -0.0000000000E+00   -0.0000000000E+00
   -0.0000000000E+00   -0.0000000000E+00   -0.0000000000E+00
   -0.0000000000E+00   -0.0000000000E+00   -0.0000000000E+00
    1.7843367154E-05    1.0005806218E-05    3.1531411131E-05
   -2.6229088059E-06   -8.1472168402E-07   -6.0498074368E-07
   -8.7245198713E-07   -5.4753038550E-06   -1.6385780259E-06
   -0.0000000000E+00   -0.0000000000E+00   -0.0000000000E+00
   -5.1891239020E-06    2.8742558064E-06   -1.6419520332E-07
   -1.3009569349E-06    5.2588755749E-07   -4.1522838766E-07
    2.1727986783E-05    1.9266113984E-05   -1.7312966049E-05
    4.0958360860E-09   -3.6144130849E-06   -3.9498344971E-08
   -0.0000000000E+00   -0.0000000000E+00   -0.0000000000E+00
   -1.8105145685E-06   -2.6569520295E-06    1.5628993374E-05
   -0.0000000000E+00   -0.0000000000E+00   -0.0000000000E+00
   -0.0000000000E+00   -0.0000000000E+00   -0.0000000000E+00
   -0.0000000000E+00   -0.0000000000E+00   -0.0000000000E+00
    6.4477951305E-06   -2.2454001078E-05    2.2226004339E-05
    2.3140804723E-07   -4.3224244793E-06   -5.8016407229E-07
   -0.0000000000E+00   -0.0000000000E+00   -0.0000000000E+00
   -0.0000000000E+00   -0.0000000000E+00   -0.0000000000E+00
   -0.0000000000E+00   -0.0000000000E+00   -0.0000000000E+00
    2.5822907036E-06   -2.0801264134E-06   -2.5261754688E-06
   -4.3288244945E-06    1.0154302255E-05   -1.7733500377E-05
   -0.0000000000E+00   -0.0000000000E+00   -0.0000000000E+00
   -1.7024020141E-06   -3.5002723468E-07   -1.9698609970E-06
   -0.0000000000E+00   -0.0000000000E+00   -0.0000000000E+00
   -2.3767476084E-06   -4.4454356123E-06   -2.6092147858E-06
   -0.0000000000E+00   -0.0000000000E+00   -0.0000000000E+00
    2.6716301850E-05   -2.8360075232E-05    7.0769406360E-05
   -4.6379544726E-06   -2.9127068212E-07   -2.9105464952E-06
   -0.0000000000E+00   -0.0000000000E+00   -0.0000000000E+00
   -3.9892497088E-06   -4.2750277714E-06   -1.2922265731E-08
   -1.1817783926E-06   -6.6063957730E-07    1.1922136492E-07
   -0.0000000000E+00   -0.0000000000E+00   -0.0000000000E+00
   -1.8789694309E-06    1.1243513622E-06    4.7469615399E-07
   -0.0000000000E+00   -0.0000000000E+00   -0.0000000000E+00
   -1.2095493848E-06    7.7530422222E-06   -4.4100694352E-08
   -2.7171774276E-06   -2.7237763135E-06   -4.0758260499E-07
   -0.0000000000E+00   -0.0000000000E+00   -0.0000000000E+00
   -0.0000000000E+00   -0.0000000000E+00   -0.0000000000E+00
   -1.0391668938E-05   -2.1668207265E-05   -1.9958986737E-05
   -0.0000000000E+00   -0.0000000000E+00   -0.0000000000E+00
    1.3859648663E-05    8.6606388404E-06   -2.5879637541E-05
   -0.0000000000E+00   -0.0000000000E+00   -0.0000000000E+00
   -0.0000000000E+00   -0.0000000000E+00   -0.0000000000E+00
   -0.0000000000E+00   -0.0000000000E+00   -0.0000000000E+00
   -0.0000000000E+00   -0.0000000000E+00   -0.0000000000E+00
    4.1199219643E-06    9.0376874356E-06   -2.8108293766E-06
   -0.0000000000E+00   -0.0000000000E+00   -0.0000000000E+00
   -1.5301071893E-06   -3.4495577297E-06    1.6016078832E-06
   -6.2358686536E-07   -3.4768681006E-06    3.2942861812E-06
    7.7471393966E-06    1.1117154800E-05   -1.4889974272E-05
    6.7004559597E-05   -6.4800606040E-05   -1.9589721720E-04
 
 stress matrix after NEB project (eV)
    -32.24798      0.12187      0.34155
      0.12187    -32.59510     -0.44031
      0.34155     -0.44031    -23.56130
  FORCES: max atom, RMS     0.040908    0.010252
  FORCE total and by dimension    0.170318    0.032808
  Stress total and by dimension   51.557334   32.595105
 OPT: skip step - force has converged


--------------------------------------------------------------------------------------------------------


  
 reached required accuracy - stopping structural energy minimisation
     LOOP+:  cpu time  998.4523: real time 1003.2281
    4ORBIT:  cpu time    0.0000: real time    0.0000

 total amount of memory used by VASP MPI-rank0   389758. kBytes
=======================================================================

   base      :      30000. kBytes
   nonlr-proj:      16949. kBytes
   fftplans  :      22890. kBytes
   grid      :      38557. kBytes
   one-center:       1073. kBytes
   wavefun   :     280289. kBytes

  
  
 General timing and accounting informations for this job:
 ========================================================
  
                  Total CPU time used (sec):     1086.825
                            User time (sec):     1082.414
                          System time (sec):        4.410
                         Elapsed time (sec):     1095.193
  
                   Maximum memory used (kb):      700068.
                   Average memory used (kb):           0.
  
                          Minor page faults:      1523007
                          Major page faults:          196
                 Voluntary context switches:        17796
