 vasp.5.4.4.18Apr17-6-g9f103f2a35 (build Oct 20 2021 08:33:53) complex           
 executed on             LinuxGNU date 2025.03.01  11:25:58
 running on   64 total cores
 each image running on    8 cores
 distrk:  each k-point on    8 cores,    1 groups
 distr:  one band on NCORES_PER_BAND=   4 cores,    2 groups


--------------------------------------------------------------------------------------------------------


 INCAR:
 POTCAR:    PAW_PBE C 08Apr2002                   
 POTCAR:    PAW_PBE H 15Jun2001                   
 POTCAR:    PAW_PBE O 08Apr2002                   
 POTCAR:    PAW_PBE Si 05Jan2001                  
 POTCAR:    PAW_PBE W 08Apr2002                   
 POTCAR:    PAW_PBE C 08Apr2002                   
   VRHFIN =C: s2p2                                                              
   LEXCH  = PE                                                                  
   EATOM  =   147.1560 eV,   10.8157 Ry                                         
                                                                                
   TITEL  = PAW_PBE C 08Apr2002                                                 
   LULTRA =        F    use ultrasoft PP ?                                      
   IUNSCR =        1    unscreen: 0-lin 1-nonlin 2-no                           
   RPACOR =    1.200    partial core radius                                     
   POMASS =   12.011; ZVAL   =    4.000    mass and valenz                      
   RCORE  =    1.500    outmost cutoff radius                                   
   RWIGS  =    1.630; RWIGS  =    0.863    wigner-seitz radius (au A)           
   ENMAX  =  400.000; ENMIN  =  300.000 eV                                      
   ICORE  =        2    local potential                                         
   LCOR   =        T    correct aug charges                                     
   LPAW   =        T    paw PP                                                  
   EAUG   =  644.873                                                            
   DEXC   =    0.000                                                            
   RMAX   =    1.529    core radius for proj-oper                               
   RAUG   =    1.300    factor for augmentation sphere                          
   RDEP   =    1.501    radius for radial grids                                 
   RDEPT  =    1.300    core radius for aug-charge                              
                                                                                
   Atomic configuration                                                         
    4 entries                                                                   
     n  l   j            E        occ.                                          
     1  0  0.50      -273.3789   2.0000                                         
     2  0  0.50       -13.7508   2.0000                                         
     2  1  0.50        -5.2854   2.0000                                         
     3  2  1.50        -5.4423   0.0000                                         
   Description                                                                  
     l       E           TYP  RCUT    TYP  RCUT                                 
     0    -13.7508458     23  1.200                                             
     0     -8.2022199     23  1.200                                             
     1     -5.2854383     23  1.500                                             
     1     34.0145650     23  1.500                                             
     2     -5.4423304      7  1.500                                             
  local pseudopotential read in
  partial core-charges read in
  partial kinetic energy density read in
  atomic valenz-charges read in
  non local Contribution for L=           0  read in
    real space projection operators read in
  non local Contribution for L=           0  read in
    real space projection operators read in
  non local Contribution for L=           1  read in
    real space projection operators read in
  non local Contribution for L=           1  read in
    real space projection operators read in
    PAW grid and wavefunctions read in

   number of l-projection  operators is LMAX  =           4
   number of lm-projection operators is LMMAX =           8

 POTCAR:    PAW_PBE H 15Jun2001                   
   VRHFIN =H: ultrasoft test                                                    
   LEXCH  = PE                                                                  
   EATOM  =    12.4884 eV,    0.9179 Ry                                         
                                                                                
   TITEL  = PAW_PBE H 15Jun2001                                                 
   LULTRA =        F    use ultrasoft PP ?                                      
   IUNSCR =        0    unscreen: 0-lin 1-nonlin 2-no                           
   RPACOR =    0.000    partial core radius                                     
   POMASS =    1.000; ZVAL   =    1.000    mass and valenz                      
   RCORE  =    1.100    outmost cutoff radius                                   
   RWIGS  =    0.700; RWIGS  =    0.370    wigner-seitz radius (au A)           
   ENMAX  =  250.000; ENMIN  =  200.000 eV                                      
   RCLOC  =    0.701    cutoff for local pot                                    
   LCOR   =        T    correct aug charges                                     
   LPAW   =        T    paw PP                                                  
   EAUG   =  400.000                                                            
   RMAX   =    1.123    core radius for proj-oper                               
   RAUG   =    1.200    factor for augmentation sphere                          
   RDEP   =    1.112    radius for radial grids                                 
   RDEPT  =    0.926    core radius for aug-charge                              
                                                                                
   Atomic configuration                                                         
    2 entries                                                                   
     n  l   j            E        occ.                                          
     1  0  0.50        -6.4927   1.0000                                         
     2  1  0.50        -3.4015   0.0000                                         
   Description                                                                  
     l       E           TYP  RCUT    TYP  RCUT                                 
     0     -6.4927494     23  1.100                                             
     0      6.8029130     23  1.100                                             
     1     -4.0817478     23  1.100                                             
  local pseudopotential read in
  atomic valenz-charges read in
  non local Contribution for L=           0  read in
    real space projection operators read in
  non local Contribution for L=           0  read in
    real space projection operators read in
  non local Contribution for L=           1  read in
    real space projection operators read in
    PAW grid and wavefunctions read in

   number of l-projection  operators is LMAX  =           3
   number of lm-projection operators is LMMAX =           5

 POTCAR:    PAW_PBE O 08Apr2002                   
   VRHFIN =O: s2p4                                                              
   LEXCH  = PE                                                                  
   EATOM  =   432.3788 eV,   31.7789 Ry                                         
                                                                                
   TITEL  = PAW_PBE O 08Apr2002                                                 
   LULTRA =        F    use ultrasoft PP ?                                      
   IUNSCR =        1    unscreen: 0-lin 1-nonlin 2-no                           
   RPACOR =    1.200    partial core radius                                     
   POMASS =   16.000; ZVAL   =    6.000    mass and valenz                      
   RCORE  =    1.520    outmost cutoff radius                                   
   RWIGS  =    1.550; RWIGS  =    0.820    wigner-seitz radius (au A)           
   ENMAX  =  400.000; ENMIN  =  300.000 eV                                      
   ICORE  =        2    local potential                                         
   LCOR   =        T    correct aug charges                                     
   LPAW   =        T    paw PP                                                  
   EAUG   =  605.392                                                            
   DEXC   =    0.000                                                            
   RMAX   =    1.553    core radius for proj-oper                               
   RAUG   =    1.300    factor for augmentation sphere                          
   RDEP   =    1.550    radius for radial grids                                 
   RDEPT  =    1.329    core radius for aug-charge                              
                                                                                
   Atomic configuration                                                         
    4 entries                                                                   
     n  l   j            E        occ.                                          
     1  0  0.50      -514.6923   2.0000                                         
     2  0  0.50       -23.9615   2.0000                                         
     2  1  0.50        -9.0305   4.0000                                         
     3  2  1.50        -9.5241   0.0000                                         
   Description                                                                  
     l       E           TYP  RCUT    TYP  RCUT                                 
     0    -23.9615318     23  1.200                                             
     0     -9.5240782     23  1.200                                             
     1     -9.0304911     23  1.520                                             
     1      8.1634956     23  1.520                                             
     2     -9.5240782      7  1.500                                             
  local pseudopotential read in
  partial core-charges read in
  partial kinetic energy density read in
  kinetic energy density of atom read in
  atomic valenz-charges read in
  non local Contribution for L=           0  read in
    real space projection operators read in
  non local Contribution for L=           0  read in
    real space projection operators read in
  non local Contribution for L=           1  read in
    real space projection operators read in
  non local Contribution for L=           1  read in
    real space projection operators read in
    PAW grid and wavefunctions read in

   number of l-projection  operators is LMAX  =           4
   number of lm-projection operators is LMMAX =           8

 POTCAR:    PAW_PBE Si 05Jan2001                  
   VRHFIN =Si: s2p2                                                             
   LEXCH  = PE                                                                  
   EATOM  =   103.0669 eV,    7.5752 Ry                                         
                                                                                
   TITEL  = PAW_PBE Si 05Jan2001                                                
   LULTRA =        F    use ultrasoft PP ?                                      
   IUNSCR =        1    unscreen: 0-lin 1-nonlin 2-no                           
   RPACOR =    1.500    partial core radius                                     
   POMASS =   28.085; ZVAL   =    4.000    mass and valenz                      
   RCORE  =    1.900    outmost cutoff radius                                   
   RWIGS  =    2.480; RWIGS  =    1.312    wigner-seitz radius (au A)           
   ENMAX  =  245.345; ENMIN  =  184.009 eV                                      
   ICORE  =        2    local potential                                         
   LCOR   =        T    correct aug charges                                     
   LPAW   =        T    paw PP                                                  
   EAUG   =  322.069                                                            
   DEXC   =    0.000                                                            
   RMAX   =    1.950    core radius for proj-oper                               
   RAUG   =    1.300    factor for augmentation sphere                          
   RDEP   =    1.993    radius for radial grids                                 
   RDEPT  =    1.837    core radius for aug-charge                              
                                                                                
   Atomic configuration                                                         
    6 entries                                                                   
     n  l   j            E        occ.                                          
     1  0  0.50     -1785.8828   2.0000                                         
     2  0  0.50      -139.4969   2.0000                                         
     2  1  1.50       -95.5546   6.0000                                         
     3  0  0.50       -10.8127   2.0000                                         
     3  1  0.50        -4.0811   2.0000                                         
     3  2  1.50        -4.0817   0.0000                                         
   Description                                                                  
     l       E           TYP  RCUT    TYP  RCUT                                 
     0    -10.8127223     23  1.900                                             
     0     -7.6451159     23  1.900                                             
     1     -4.0811372     23  1.900                                             
     1      2.4879257     23  1.900                                             
     2     -4.0817478      7  1.900                                             
  local pseudopotential read in
  partial core-charges read in
  partial kinetic energy density read in
  atomic valenz-charges read in
  non local Contribution for L=           0  read in
    real space projection operators read in
  non local Contribution for L=           0  read in
    real space projection operators read in
  non local Contribution for L=           1  read in
    real space projection operators read in
  non local Contribution for L=           1  read in
    real space projection operators read in
    PAW grid and wavefunctions read in

   number of l-projection  operators is LMAX  =           4
   number of lm-projection operators is LMMAX =           8

 POTCAR:    PAW_PBE W 08Apr2002                   
   VRHFIN =W : 6s5d                                                             
   LEXCH  = PE                                                                  
   EATOM  =   204.6103 eV,   15.0384 Ry                                         
                                                                                
   TITEL  = PAW_PBE W 08Apr2002                                                 
   LULTRA =        F    use ultrasoft PP ?                                      
   IUNSCR =        1    unscreen: 0-lin 1-nonlin 2-no                           
   RPACOR =    2.330    partial core radius                                     
   POMASS =  183.850; ZVAL   =    6.000    mass and valenz                      
   RCORE  =    2.750    outmost cutoff radius                                   
   RWIGS  =    2.750; RWIGS  =    1.455    wigner-seitz radius (au A)           
   ENMAX  =  223.057; ENMIN  =  167.293 eV                                      
   RCLOC  =    2.147    cutoff for local pot                                    
   LCOR   =        T    correct aug charges                                     
   LPAW   =        T    paw PP                                                  
   EAUG   =  373.438                                                            
   DEXC   =    0.000                                                            
   RMAX   =    2.801    core radius for proj-oper                               
   RAUG   =    1.300    factor for augmentation sphere                          
   RDEP   =    2.886    radius for radial grids                                 
   RDEPT  =    2.230    core radius for aug-charge                              
                                                                                
   Atomic configuration                                                         
   16 entries                                                                   
     n  l   j            E        occ.                                          
     1  0  0.50    -69465.5836   2.0000                                         
     2  0  0.50    -11986.2642   2.0000                                         
     2  1  1.50    -10479.8616   6.0000                                         
     3  0  0.50     -2759.0758   2.0000                                         
     3  1  1.50     -2313.1857   6.0000                                         
     3  2  2.50     -1801.1185  10.0000                                         
     4  0  0.50      -567.6791   2.0000                                         
     4  1  1.50      -421.4694   6.0000                                         
     4  2  2.50      -236.3473  10.0000                                         
     4  3  3.50       -31.2666  14.0000                                         
     5  0  0.50       -77.1085   2.0000                                         
     5  1  1.50       -41.3856   6.0000                                         
     5  2  2.50        -3.3185   5.0000                                         
     6  0  0.50        -5.1438   1.0000                                         
     6  1  0.50        -3.8096   0.0000                                         
     5  3  2.50        -1.3606   0.0000                                         
   Description                                                                  
     l       E           TYP  RCUT    TYP  RCUT                                 
     2     -3.3185288     23  2.500                                             
     2     -1.5965414     23  2.500                                             
     0     -5.1438054     23  2.500                                             
     0      4.9117504     23  2.500                                             
     1      2.7211652     23  2.750                                             
     1     27.2116520     23  2.750                                             
  local pseudopotential read in
  partial core-charges read in
  partial kinetic energy density read in
  atomic valenz-charges read in
  non local Contribution for L=           2  read in
    real space projection operators read in
  non local Contribution for L=           2  read in
    real space projection operators read in
  non local Contribution for L=           0  read in
    real space projection operators read in
  non local Contribution for L=           0  read in
    real space projection operators read in
  non local Contribution for L=           1  read in
    real space projection operators read in
  non local Contribution for L=           1  read in
    real space projection operators read in
    PAW grid and wavefunctions read in

   number of l-projection  operators is LMAX  =           6
   number of lm-projection operators is LMMAX =          18

 Optimization of the real space projectors (new method)

 maximal supplied QI-value         = 25.13
 optimisation between [QCUT,QGAM] = [ 11.31, 22.87] = [ 35.82,146.48] Ry 
 Optimized for a Real-space Cutoff    1.00 Angstroem

   l    n(q)    QCUT    max X(q) W(low)/X(q) W(high)/X(q)  e(spline) 
   0      7    11.310   115.676    0.43E-03    0.13E-02    0.19E-06
   0      7    11.310    87.132    0.43E-03    0.13E-02    0.18E-06
   1      6    11.310     4.429    0.42E-03    0.74E-03    0.11E-06
   1      6    11.310     2.733    0.34E-03    0.55E-03    0.92E-07
 Optimization of the real space projectors (new method)

 maximal supplied QI-value         = 34.20
 optimisation between [QCUT,QGAM] = [ 11.29, 22.57] = [ 35.68,142.71] Ry 
 Optimized for a Real-space Cutoff    1.16 Angstroem

   l    n(q)    QCUT    max X(q) W(low)/X(q) W(high)/X(q)  e(spline) 
   0      8    11.287    19.460    0.40E-03    0.73E-03    0.16E-06
   0      8    11.287    12.209    0.38E-03    0.70E-03    0.15E-06
   1      7    11.287     4.655    0.22E-03    0.25E-04    0.22E-06
 Optimization of the real space projectors (new method)

 maximal supplied QI-value         = 24.76
 optimisation between [QCUT,QGAM] = [ 11.39, 22.77] = [ 36.31,145.25] Ry 
 Optimized for a Real-space Cutoff    1.00 Angstroem

   l    n(q)    QCUT    max X(q) W(low)/X(q) W(high)/X(q)  e(spline) 
   0      7    11.387    20.381    0.39E-03    0.13E-02    0.15E-06
   0      7    11.387    15.268    0.42E-03    0.14E-02    0.17E-06
   1      6    11.387     5.964    0.41E-03    0.11E-02    0.17E-06
   1      6    11.387     5.382    0.39E-03    0.87E-03    0.15E-06
 Optimization of the real space projectors (new method)

 maximal supplied QI-value         = 19.84
 optimisation between [QCUT,QGAM] = [ 11.31, 22.82] = [ 35.82,145.81] Ry 
 Optimized for a Real-space Cutoff    1.16 Angstroem

   l    n(q)    QCUT    max X(q) W(low)/X(q) W(high)/X(q)  e(spline) 
   0      8    11.310   159.560    0.27E-03    0.30E-03    0.39E-07
   0      8    11.310   115.863    0.27E-03    0.30E-03    0.38E-07
   1      7    11.310    88.339    0.28E-03    0.28E-03    0.77E-07
   1      7    11.310    48.592    0.27E-03    0.27E-03    0.74E-07
 Optimization of the real space projectors (new method)

 maximal supplied QI-value         = 13.61
 optimisation between [QCUT,QGAM] = [ 11.43, 22.86] = [ 36.58,146.31] Ry 
 Optimized for a Real-space Cutoff    1.56 Angstroem

   l    n(q)    QCUT    max X(q) W(low)/X(q) W(high)/X(q)  e(spline) 
   2     10    11.429   130.855    0.22E-03    0.64E-03    0.11E-05
   2     10    11.429   114.007    0.22E-03    0.64E-03    0.11E-05
   0     11    11.429    84.709    0.39E-04    0.67E-04    0.23E-06
   0     11    11.429    49.163    0.35E-04    0.62E-04    0.21E-06
   1     10    11.429    15.765    0.84E-04    0.15E-03    0.24E-06
   1     10    11.429    10.638    0.58E-04    0.12E-03    0.19E-06

 ----------------------------------------------------------------------------- 
|                                                                             |
|  ADVICE TO THIS USER RUNNING 'VASP/VAMP'   (HEAR YOUR MASTER'S VOICE ...):  |
|                                                                             |
|      You enforced a specific xc-type in the INCAR file,                     |
|      a different type was found on the POTCAR file                          |
|          I HOPE YOU KNOW, WHAT YOU ARE  DOING                               |
|                                                                             |
 ----------------------------------------------------------------------------- 

  PAW_PBE C 08Apr2002                   :
 energy of atom  1       EATOM= -147.1560
 kinetic energy error for atom=    0.0076 (will be added to EATOM!!)
  PAW_PBE H 15Jun2001                   :
 energy of atom  2       EATOM=  -12.4884
 kinetic energy error for atom=    0.0020 (will be added to EATOM!!)
  PAW_PBE O 08Apr2002                   :
 energy of atom  3       EATOM= -432.3788
 kinetic energy error for atom=    0.0224 (will be added to EATOM!!)
  PAW_PBE Si 05Jan2001                  :
 energy of atom  4       EATOM= -103.0669
 kinetic energy error for atom=    0.0006 (will be added to EATOM!!)
  PAW_PBE W 08Apr2002                   :
 energy of atom  5       EATOM= -204.6103
 kinetic energy error for atom=    0.0017 (will be added to EATOM!!)


 POSCAR:  C  H  O Si  W                          
  positions in direct lattice
  velocities in cartesian coordinates
 exchange correlation table for  LEXCH =        9
   RHO(1)=    0.500       N(1)  =     2000
   RHO(2)=  100.500       N(2)  =     4000

 VTST: version 3.2, (02/03/18)

 CHAIN: initializing optimizer
 
 OPT: Using VASP Quick-Min optimizer
 CHAIN: Read ICHAIN            0
 CHAIN: Running the NEB
 NEB:          SPRING     -5.000000
 NEB:          LCLIMB      T
 NEB:     LTANGENTOLD      F
 NEB:           LDNEB      F
 NEB:        LDNEBORG      F
 NEB:        LNEBCELL      F
 NEB:          EFIRST      0.000000
 NEB:           ELAST      0.000000

 POSCAR:  C  H  O Si  W                          
  positions in cartesian coordinates
  No initial velocities read in

 POSCAR:  C  H  O Si  W                          
  positions in cartesian coordinates
  No initial velocities read in



--------------------------------------------------------------------------------------------------------


 ion  position               nearest neighbor table
   1  0.592  0.437  0.705-  50 1.10  49 1.10 276 1.92
   2  0.493  0.629  0.790-  52 1.10  53 1.10  51 1.10   3 1.50
   3  0.547  0.610  0.763-  54 1.09   4 1.35   2 1.50
   4  0.582  0.554  0.775-  55 1.09  56 1.09   3 1.35
   5  0.761  0.077  0.651- 131 0.97
   6  0.926  0.251  0.356-  79 0.98
   7  0.793  0.180  0.373- 114 0.97
   8  0.975  0.916  0.325- 123 0.97
   9  0.626  0.936  0.375- 125 0.98
  10  0.821  0.967  0.369- 143 0.97
  11  0.750  0.114  0.458- 181 0.98
  12  0.916  0.222  0.509- 186 0.97
  13  0.583  0.277  0.306- 191 0.97
  14  0.892  0.308  0.617-  97 0.98
  15  0.588  0.330  0.617- 142 0.97
  16  0.594  0.844  0.577- 184 0.99
  17  0.034  0.310  0.653- 190 0.97
  18  0.935  0.392  0.454- 179 0.98
  19  0.746  0.503  0.422-  93 1.00
  20  0.799  0.356  0.636- 171 0.97
  21  0.591  0.541  0.378- 105 0.99
  22  0.718  0.618  0.383- 128 0.99
  23  0.841  0.515  0.420- 134 0.98
  24  0.005  0.576  0.358- 139 0.97
  25  0.828  0.685  0.468- 180 0.99
  26  0.880  0.572  0.721-  59 0.97
  27  0.520  0.958  0.422- 141 0.99
  28  0.223  0.953  0.393- 182 1.00
  29  0.216  0.210  0.319- 197 0.99
  30  0.158  0.302  0.279- 188 0.97
  31  0.342  0.128  0.331- 189 0.98
  32  0.223  0.018  0.323- 196 0.97
  33  0.512  0.798  0.547- 199 0.97
  34  0.375  0.212  0.647-  84 0.97
  35  0.244  0.066  0.598- 135 0.98
  36  0.315  0.460  0.442-  58 0.99
  37  0.409  0.411  0.406- 147 0.98
  38  0.398  0.766  0.389- 185 0.97
  39  0.244  0.628  0.294- 193 0.97
  40  0.312  0.391  0.369- 194 0.98
  41  0.405  0.557  0.339- 195 0.97
  42  0.139  0.460  0.352- 187 0.98
  43  0.593  0.670  0.352-  88 0.97
  44  0.469  0.834  0.444- 198 0.99
  45  0.122  0.297  0.613- 107 0.97
  46  0.074  0.636  0.646- 138 0.97
  47  0.244  0.360  0.682- 183 0.97
  48  0.246  0.788  0.670- 192 0.97
  49  0.604  0.394  0.732-   1 1.10
  50  0.628  0.464  0.686-   1 1.10
  51  0.499  0.682  0.810-   2 1.10
  52  0.482  0.587  0.818-   2 1.10
  53  0.457  0.637  0.764-   2 1.10
  54  0.559  0.646  0.732-   3 1.09
  55  0.623  0.546  0.756-   4 1.09
  56  0.573  0.517  0.806-   4 1.09
  57  0.369  0.621  0.439- 230 1.66 265 1.68
  58  0.347  0.476  0.420-  36 0.99 265 1.67
  59  0.863  0.539  0.697-  26 0.97 236 1.64
  60  0.349  0.930  0.531- 241 1.68 274 1.70
  61  0.033  0.904  0.529- 256 1.63 267 1.66
  62  0.636  0.051  0.489- 234 1.60 223 1.65
  63  0.069  0.025  0.395- 222 1.64 214 1.65
  64  0.452  0.102  0.421- 239 1.65 220 1.65
  65  0.806  0.186  0.483- 238 1.67 235 1.69
  66  0.974  0.154  0.599- 216 1.63 246 1.65
  67  0.275  0.272  0.449- 262 1.65 272 1.66
  68  0.556  0.747  0.442- 243 1.51 270 1.66
  69  0.392  0.944  0.620- 260 1.65 274 1.66
  70  0.178  0.322  0.405- 262 1.66 237 1.67
  71  0.867  0.658  0.637- 240 1.64 236 1.65
  72  0.866  0.940  0.467- 232 1.60 247 1.65
  73  0.301  0.733  0.458- 230 1.65 244 1.67
  74  0.422  0.234  0.380- 239 1.67 259 1.67
  75  0.811  0.438  0.520- 266 1.63 213 1.64
  76  0.984  0.045  0.521- 256 1.68 216 1.69
  77  0.510  0.428  0.627- 275 1.64 276 1.96
  78  0.035  0.892  0.429- 267 1.64 214 1.65
  79  0.963  0.276  0.351-   6 0.98 215 1.65
  80  0.070  0.309  0.376- 215 1.64 237 1.65
  81  0.208  0.701  0.395- 244 1.66 254 1.67
  82  0.039  0.392  0.499- 269 1.64 242 1.65
  83  0.239  0.258  0.588- 250 1.63 227 1.63
  84  0.397  0.167  0.644-  34 0.97 221 1.64
  85  0.454  0.536  0.583- 252 1.68 275 1.68
  86  0.911  0.722  0.558- 240 1.64 219 1.66
  87  0.869  0.080  0.442- 247 1.64 235 1.65
  88  0.573  0.640  0.376-  43 0.97 243 1.68
  89  0.142  0.132  0.376- 268 1.65 222 1.65
  90  0.350  0.739  0.607- 212 1.62 253 1.64
  91  0.911  0.817  0.483- 232 1.62 219 1.66
  92  0.061  0.509  0.442- 269 1.66 211 1.67
  93  0.708  0.528  0.420-  19 1.00 225 1.67
  94  0.075  0.789  0.483- 267 1.50 249 1.65
  95  0.700  0.800  0.433- 224 1.53 257 1.65
  96  0.730  0.022  0.543- 258 1.64 223 1.64
  97  0.919  0.274  0.632-  14 0.98 246 1.63
  98  0.736  0.826  0.613- 231 1.66 228 1.67
  99  0.625  0.500  0.486- 233 1.58 225 1.68
 100  0.557  0.602  0.467- 243 1.52 233 1.63
 101  0.426  0.219  0.555- 221 1.68 264 1.69
 102  0.978  0.701  0.477- 249 1.65 219 1.65
 103  0.656  0.569  0.633- 271 1.64 217 1.67
 104  0.397  0.718  0.516- 212 1.66 230 1.67
 105  0.603  0.490  0.386-  21 0.99 225 1.65
 106  0.721  0.605  0.558- 255 1.63 271 1.64
 107  0.148  0.338  0.622-  45 0.97 227 1.64
 108  0.066  0.521  0.542- 269 1.64 273 1.64
 109  0.819  0.858  0.536- 232 1.65 231 1.66
 110  0.828  0.328  0.452- 238 1.65 213 1.65
 111  0.527  0.272  0.533- 264 1.62 245 1.63
 112  0.738  0.472  0.596- 271 1.65 266 1.66
 113  0.557  0.145  0.395- 251 1.59 220 1.64
 114  0.806  0.229  0.383-   7 0.97 238 1.67
 115  0.237  0.926  0.508- 241 1.58 226 1.67
 116  0.694  0.750  0.541- 255 1.63 228 1.64
 117  0.924  0.922  0.553- 256 1.64 232 1.65
 118  0.526  0.290  0.399- 251 1.45 259 1.66
 119  0.468  0.962  0.546- 260 1.69 261 1.70
 120  0.838  0.067  0.540- 235 1.65 258 1.66
 121  0.538  0.089  0.486- 234 1.60 220 1.67
 122  0.350  0.159  0.440- 272 1.63 239 1.65
 123  0.012  0.935  0.335-   8 0.97 214 1.65
 124  0.470  0.558  0.677- 252 1.65 276 2.02
 125  0.655  0.898  0.379-   9 0.98 224 1.66
 126  0.076  0.658  0.436- 211 1.65 249 1.66
 127  0.451  0.378  0.551- 275 1.68 264 1.70
 128  0.719  0.673  0.380-  22 0.99 257 1.65
 129  0.449  0.676  0.603- 212 1.63 252 1.65
 130  0.753  0.682  0.476- 255 1.62 257 1.69
 131  0.779  0.094  0.621-   5 0.97 258 1.64
 132  0.993  0.280  0.448- 242 1.66 215 1.68
 133  0.534  0.483  0.533- 233 1.65 275 1.65
 134  0.817  0.471  0.423-  23 0.98 213 1.69
 135  0.237  0.118  0.605-  35 0.98 250 1.62
 136  0.204  0.803  0.471- 226 1.50 244 1.63
 137  0.240  0.531  0.523- 229 1.65 218 1.66
 138  0.061  0.598  0.624-  46 0.97 273 1.64
 139  0.046  0.575  0.354-  24 0.97 211 1.65
 140  0.801  0.952  0.606- 231 1.66 258 1.68
 141  0.538  0.000  0.405-  27 0.99 220 1.66
 142  0.607  0.286  0.605-  15 0.97 245 1.64
 143  0.862  0.976  0.369-  10 0.97 247 1.66
 144  0.095  0.121  0.467- 248 1.62 222 1.65
 145  0.171  0.176  0.531- 248 1.61 250 1.63
 146  0.641  0.677  0.455- 243 1.65 257 1.66
 147  0.437  0.382  0.386-  37 0.98 259 1.66
 148  0.574  0.031  0.571- 261 1.62 234 1.65
 149  0.151  0.566  0.389- 254 1.68 211 1.68
 150  0.268  0.575  0.392- 265 1.65 254 1.67
 151  0.440  0.295  0.470- 264 1.64 259 1.69
 152  0.238  0.131  0.430- 268 1.65 272 1.67
 153  0.073  0.122  0.562- 248 1.64 216 1.64
 154  0.846  0.518  0.600- 236 1.66 266 1.66
 155  0.621  0.252  0.411- 263 1.65 251 1.66
 156  0.603  0.864  0.467- 270 1.29 224 1.67
 157  0.031  0.168  0.389- 215 1.66 222 1.66
 158  0.607  0.168  0.548- 234 1.62 245 1.64
 159  0.133  0.911  0.479- 267 1.65 226 1.66
 160  0.080  0.253  0.512- 242 1.64 248 1.65
 161  0.373  0.076  0.568- 274 1.63 221 1.69
 162  0.066  0.669  0.536- 249 1.63 273 1.63
 163  0.666  0.388  0.430- 225 1.65 263 1.65
 164  0.800  0.703  0.564- 255 1.61 240 1.63
 165  0.704  0.930  0.470- 223 1.65 224 1.66
 166  0.602  0.607  0.552- 233 1.63 217 1.63
 167  0.723  0.266  0.452- 238 1.63 263 1.64
 168  0.977  0.286  0.547- 242 1.64 246 1.67
 169  0.158  0.603  0.571- 229 1.63 273 1.65
 170  0.633  0.299  0.508- 245 1.63 263 1.65
 171  0.821  0.370  0.607-  20 0.97 266 1.65
 172  0.959  1.000  0.417- 247 1.64 214 1.65
 173  0.282  0.167  0.519- 272 1.63 250 1.65
 174  0.249  0.415  0.461- 218 1.66 262 1.71
 175  0.271  0.822  0.569- 241 1.64 253 1.65
 176  0.204  0.658  0.487- 229 1.63 244 1.66
 177  0.147  0.448  0.493- 218 1.63 269 1.65
 178  0.225  0.395  0.557- 218 1.61 227 1.64
 179  0.911  0.425  0.474-  18 0.98 213 1.65
 180  0.870  0.677  0.464-  25 0.99 219 1.65
 181  0.738  0.065  0.445-  11 0.98 223 1.66
 182  0.222  0.902  0.408-  28 1.00 226 1.64
 183  0.254  0.375  0.649-  47 0.97 227 1.65
 184  0.631  0.857  0.593-  16 0.99 228 1.62
 185  0.410  0.761  0.423-  38 0.97 230 1.68
 186  0.918  0.168  0.508-  12 0.97 235 1.65
 187  0.133  0.416  0.332-  42 0.98 237 1.65
 188  0.155  0.276  0.311-  30 0.97 237 1.69
 189  0.373  0.103  0.348-  31 0.98 239 1.66
 190  0.035  0.265  0.633-  17 0.97 246 1.66
 191  0.573  0.229  0.320-  13 0.97 251 1.66
 192  0.245  0.743  0.650-  48 0.97 253 1.64
 193  0.207  0.621  0.310-  39 0.97 254 1.65
 194  0.275  0.365  0.367-  40 0.98 262 1.66
 195  0.365  0.570  0.342-  41 0.97 265 1.67
 196  0.226  0.029  0.358-  32 0.97 268 1.69
 197  0.241  0.168  0.329-  29 0.99 268 1.66
 198  0.501  0.865  0.455-  44 0.99 270 1.60
 199  0.550  0.800  0.534-  33 0.97 270 1.67
 200  0.547  0.624  0.632- 217 1.63 252 1.68
 201  0.478  0.094  0.596- 261 1.65 221 1.65
 202  0.262  0.667  0.569- 253 1.65 229 1.65
 203  0.443  0.818  0.582- 260 1.66 212 1.69
 204  0.767  0.590  0.650- 271 1.65 236 1.66
 205  0.846  0.805  0.623- 240 1.66 231 1.68
 206  0.642  0.714  0.621- 217 1.67 228 1.70
 207  0.008  0.006  0.603- 256 1.69 216 1.69
 208  0.285  0.974  0.594- 274 1.70 241 1.70
 209  0.504  0.944  0.629- 260 1.69 261 1.70
 210  0.478  0.408  0.734- 276 1.71
 211  0.083  0.579  0.406- 139 1.65 126 1.65  92 1.67 149 1.68 269 3.13
 212  0.409  0.737  0.575-  90 1.62 129 1.63 104 1.66 203 1.69 253 3.07
 213  0.842  0.414  0.468-  75 1.64 110 1.65 179 1.65 134 1.69
 214  0.017  0.963  0.394-  63 1.65 172 1.65  78 1.65 123 1.65 267 3.11 222 3.13
 215  0.015  0.257  0.391-  80 1.64  79 1.65 157 1.66 132 1.68 242 3.11 222 3.11
 216  0.009  0.087  0.572-  66 1.63 153 1.64  76 1.69 207 1.69 256 2.39 248 3.04 246 3.07
 217  0.612  0.632  0.609- 166 1.63 200 1.63 206 1.67 103 1.67 271 2.86 233 3.14
 218  0.214  0.448  0.510- 178 1.61 177 1.63 137 1.66 174 1.66 229 3.10 262 3.14
 219  0.915  0.728  0.496- 102 1.65 180 1.65  86 1.66  91 1.66 232 2.99 240 3.02
 220  0.521  0.083  0.426- 113 1.64  64 1.65 141 1.66 121 1.67 251 3.08 234 3.12
 221  0.419  0.142  0.589-  84 1.64 201 1.65 101 1.68 161 1.69 274 3.14 261 3.14
 222  0.083  0.112  0.407-  63 1.64 144 1.65  89 1.65 157 1.66 215 3.11 214 3.13 268 3.14
 223  0.702  0.017  0.487-  96 1.64 165 1.65  62 1.65 181 1.66 234 3.09 224 3.10
 224  0.665  0.870  0.437-  95 1.53 165 1.66 125 1.66 156 1.67 270 2.83 257 3.06 223 3.10
 225  0.650  0.476  0.430- 105 1.65 163 1.65  93 1.67  99 1.68 233 3.08
 226  0.198  0.885  0.464- 136 1.50 182 1.64 159 1.66 115 1.67 244 3.01 241 3.06 267 3.07
 227  0.215  0.339  0.604-  83 1.63 178 1.64 107 1.64 183 1.65
 228  0.675  0.787  0.594- 184 1.62 116 1.64  98 1.67 206 1.70 255 2.90
 229  0.217  0.614  0.539- 176 1.63 169 1.63 202 1.65 137 1.65 244 3.09 218 3.10 273 3.12
 230  0.369  0.708  0.459-  73 1.65  57 1.66 104 1.67 185 1.68
 231  0.798  0.862  0.596- 140 1.66  98 1.66 109 1.66 205 1.68 240 2.86 232 2.98 258 3.14
 232  0.880  0.885  0.512-  72 1.60  91 1.62 109 1.65 117 1.65 231 2.98 219 2.99 256 3.05 247 3.13

 233  0.577  0.548  0.512-  99 1.58 166 1.63 100 1.63 133 1.65 243 3.00 225 3.08 217 3.14
 234  0.590  0.088  0.525-  62 1.60 121 1.60 158 1.62 148 1.65 261 2.85 223 3.09 220 3.12 245 3.13

 235  0.858  0.125  0.495- 186 1.65  87 1.65 120 1.65  65 1.69 247 3.07 238 3.15
 236  0.837  0.577  0.646-  59 1.64  71 1.65 204 1.66 154 1.66 271 2.92 240 3.01 266 3.01
 237  0.134  0.333  0.357- 187 1.65  80 1.65  70 1.67 188 1.69 262 3.11
 238  0.791  0.252  0.442- 167 1.63 110 1.65 114 1.67  65 1.67 235 3.15
 239  0.399  0.150  0.396-  64 1.65 122 1.65 189 1.66  74 1.67 259 3.07
 240  0.857  0.723  0.597- 164 1.63  86 1.64  71 1.64 205 1.66 231 2.86 236 3.01 219 3.02
 241  0.283  0.907  0.550- 115 1.58 175 1.64  60 1.68 208 1.70 274 2.38 226 3.06
 242  0.023  0.303  0.502- 160 1.64 168 1.64  82 1.65 132 1.66 246 3.10 215 3.11 248 3.14
 243  0.575  0.668  0.436-  68 1.51 100 1.52 146 1.65  88 1.68 233 3.00 270 3.06 257 3.10
 244  0.230  0.725  0.452- 136 1.63 176 1.66  81 1.66  73 1.67 254 2.97 226 3.01 229 3.09
 245  0.594  0.257  0.549- 170 1.63 111 1.63 142 1.64 158 1.64 234 3.13
 246  0.976  0.245  0.603-  97 1.63  66 1.65 190 1.66 168 1.67 216 3.07 242 3.10
 247  0.889  0.998  0.424-  87 1.64 172 1.64  72 1.65 143 1.66 235 3.07 232 3.13
 248  0.105  0.168  0.518- 145 1.61 144 1.62 153 1.64 160 1.65 216 3.04 242 3.14
 249  0.048  0.705  0.483- 162 1.63 102 1.65  94 1.65 126 1.66 267 3.05 273 3.15
 250  0.232  0.178  0.561- 135 1.62  83 1.63 145 1.63 173 1.65 272 3.02
 251  0.561  0.230  0.381- 118 1.45 113 1.59 155 1.66 191 1.66 259 2.87 220 3.08
 252  0.479  0.599  0.623- 129 1.65 124 1.65 200 1.68  85 1.68 275 2.97 276 3.19
 253  0.281  0.743  0.598-  90 1.64 192 1.64 202 1.65 175 1.65 212 3.07
 254  0.209  0.616  0.372- 193 1.65 150 1.67  81 1.67 149 1.68 244 2.97
 255  0.741  0.684  0.536- 164 1.61 130 1.62 106 1.63 116 1.63 228 2.90 257 2.91 271 3.07
 256  0.986  0.963  0.550-  61 1.63 117 1.64  76 1.68 207 1.69 216 2.39 232 3.05
 257  0.703  0.709  0.434-  95 1.65 128 1.65 146 1.66 130 1.69 255 2.91 224 3.06 243 3.10
 258  0.788  0.032  0.577-  96 1.64 131 1.64 120 1.66 140 1.68 231 3.14
 259  0.456  0.301  0.409- 147 1.66 118 1.66  74 1.67 151 1.69 251 2.87 239 3.07
 260  0.450  0.907  0.595-  69 1.65 203 1.66 119 1.69 209 1.69 261 2.36 274 2.75
 261  0.509  0.013  0.586- 148 1.62 201 1.65 119 1.70 209 1.70 260 2.36 234 2.85 221 3.14
 262  0.244  0.343  0.421-  67 1.65  70 1.66 194 1.66 174 1.71 237 3.11 218 3.14
 263  0.659  0.302  0.450- 167 1.64 155 1.65 163 1.65 170 1.65
 264  0.460  0.291  0.529- 111 1.62 151 1.64 101 1.69 127 1.70
 265  0.337  0.562  0.399- 150 1.65 195 1.67  58 1.67  57 1.68
 266  0.804  0.450  0.580-  75 1.63 171 1.65 154 1.66 112 1.66 271 2.90 236 3.01
 267  0.069  0.871  0.481-  94 1.50  78 1.64 159 1.65  61 1.66 249 3.05 226 3.07 214 3.11
 268  0.212  0.117  0.374-  89 1.65 152 1.65 197 1.66 196 1.69 272 3.12 222 3.14
 269  0.078  0.466  0.495- 108 1.64  82 1.64 177 1.65  92 1.66 273 3.09 211 3.13
 270  0.558  0.825  0.475- 156 1.29 198 1.60  68 1.66 199 1.67 224 2.83 243 3.06
 271  0.720  0.558  0.610- 106 1.64 103 1.64 204 1.65 112 1.65 217 2.86 266 2.90 236 2.92 255 3.07

 272  0.287  0.183  0.459- 173 1.63 122 1.63  67 1.66 152 1.67 250 3.02 268 3.12
 273  0.088  0.598  0.568- 162 1.63 138 1.64 108 1.64 169 1.65 269 3.09 229 3.12 249 3.15
 274  0.354  0.991  0.578- 161 1.63  69 1.66  60 1.70 208 1.70 241 2.38 260 2.75 221 3.14
 275  0.485  0.453  0.573-  77 1.64 133 1.65 127 1.68  85 1.68 252 2.97
 276  0.513  0.466  0.695- 210 1.71   1 1.92  77 1.96 124 2.02 252 3.19

  LATTYP: Found a simple orthorhombic cell.
 ALAT       =    18.1212369514
 B/A-ratio  =     1.2919258579
 C/A-ratio  =     1.4835282260
  
  Lattice vectors:
  
 A1 = (   0.0000000000, -18.1212369514,   0.0000000000)
 A2 = ( -23.4112945954,   0.0000000000,   0.0000000000)
 A3 = (   0.0000000000,   0.0000000000, -26.8833665073)


Analysis of symmetry for initial positions (statically):
=====================================================================
 Subroutine PRICEL returns:
 Original cell was already a primitive cell.
 

 Routine SETGRP: Setting up the symmetry group for a 
 simple orthorhombic supercell.


 Subroutine GETGRP returns: Found  1 space group operations
 (whereof  1 operations were pure point group operations)
 out of a pool of  8 trial point group operations.


The static configuration has the point symmetry C_1 .


Analysis of symmetry for dynamics (positions and initial velocities):
=====================================================================
 Subroutine PRICEL returns:
 Original cell was already a primitive cell.
 

 Routine SETGRP: Setting up the symmetry group for a 
 simple orthorhombic supercell.


 Subroutine GETGRP returns: Found  1 space group operations
 (whereof  1 operations were pure point group operations)
 out of a pool of  8 trial point group operations.


The dynamic configuration has the point symmetry C_1 .


Analysis of constrained symmetry for selective dynamics:
=====================================================================
 Subroutine PRICEL returns:
 Original cell was already a primitive cell.
 

 Routine SETGRP: Setting up the symmetry group for a 
 simple orthorhombic supercell.


 Subroutine GETGRP returns: Found  1 space group operations
 (whereof  1 operations were pure point group operations)
 out of a pool of  8 trial point group operations.


The constrained configuration has the point symmetry C_1 .


 Subroutine INISYM returns: Found  1 space group operations
 (whereof  1 operations are pure point group operations),
 and found     1 'primitive' translations



 KPOINTS: KPOINTS created by Atomic Simulation Env

Automatic generation of k-mesh.
Space group operators:
 irot       det(A)        alpha          n_x          n_y          n_z        tau_x        tau_y        tau_z
    1     1.000000     0.000000     1.000000     0.000000     0.000000     0.000000     0.000000     0.000000
 
 Subroutine IBZKPT returns following result:
 ===========================================
 
 Found      5 irreducible k-points:
 
 Following reciprocal coordinates:
            Coordinates               Weight
  0.000000  0.000000  0.000000      1.000000
  0.333333  0.000000  0.000000      2.000000
  0.000000  0.333333  0.000000      2.000000
  0.333333  0.333333  0.000000      2.000000
 -0.333333  0.333333  0.000000      2.000000
 
 Following cartesian coordinates:
            Coordinates               Weight
  0.000000  0.000000  0.000000      1.000000
  0.014238  0.000000  0.000000      2.000000
  0.000000  0.018395  0.000000      2.000000
  0.014238  0.018395  0.000000      2.000000
 -0.014238  0.018395  0.000000      2.000000
 


--------------------------------------------------------------------------------------------------------




 Dimension of arrays:
   k-points           NKPTS =      5   k-points in BZ     NKDIM =      5   number of bands    NBANDS=    768
   number of dos      NEDOS =    301   number of ions     NIONS =    276
   non local maximal  LDIM  =      6   non local SUM 2l+1 LMDIM =     18
   total plane-waves  NPLWV = ******
   max r-space proj   IRMAX =   2748   max aug-charges    IRDMAX=   9808
   dimension x,y,z NGX =   128 NGY =  100 NGZ =  150
   dimension x,y,z NGXF=   256 NGYF=  200 NGZF=  300
   support grid    NGXF=   256 NGYF=  200 NGZF=  300
   ions per type =               4  52 154  65   1
   NGX,Y,Z   is equivalent  to a cutoff of   9.09,  9.17,  9.28 a.u.
   NGXF,Y,Z  is equivalent  to a cutoff of  18.18, 18.35, 18.55 a.u.

 SYSTEM =  unknown system                          
 POSCAR =   C  H  O Si  W                          

 Startparameter for this run:
   NWRITE =      2    write-flag & timer
   PREC   = normal    normal or accurate (medium, high low for compatibility)
   ISTART =      1    job   : 0-new  1-cont  2-samecut
   ICHARG =      2    charge: 1-file 2-atom 10-const
   ISPIN  =      1    spin polarized calculation?
   LNONCOLLINEAR =      F non collinear calculations
   LSORBIT =      F    spin-orbit coupling
   INIWAV =      1    electr: 0-lowe 1-rand  2-diag
   LASPH  =      T    aspherical Exc in radial PAW
   METAGGA=      F    non-selfconsistent MetaGGA calc.

 Electronic Relaxation 1
   ENCUT  =  500.0 eV  36.75 Ry    6.06 a.u.  42.68 33.04 49.01*2*pi/ulx,y,z
   ENINI  =  500.0     initial cutoff
   ENAUG  =  644.9 eV  augmentation charge cutoff
   NELM   =     60;   NELMIN=  2; NELMDL=  0     # of ELM steps 
   EDIFF  = 0.1E-03   stopping-criterion for ELM
   LREAL  =      T    real-space projection
   NLSPLINE    = F    spline interpolate recip. space projectors
   LCOMPAT=      F    compatible to vasp.4.4
   GGA_COMPAT  = T    GGA compatible to vasp.4.4-vasp.4.6
   LMAXPAW     = -100 max onsite density
   LMAXMIX     =    2 max onsite mixed and CHGCAR
   VOSKOWN=      0    Vosko Wilk Nusair interpolation
   ROPT   =   -0.00050  -0.00050  -0.00050  -0.00050
   ROPT   =   -0.00050
 Ionic relaxation
   EDIFFG = -.5E-01   stopping-criterion for IOM
   NSW    =    500    number of steps for IOM
   NBLOCK =      1;   KBLOCK =    500    inner block; outer block 
   IBRION =      3    ionic relax: 0-MD 1-quasi-New 2-CG
   NFREE  =      0    steps in history (QN), initial steepest desc. (CG)
   ISIF   =      0    stress and relaxation
   IWAVPR =     11    prediction:  0-non 1-charg 2-wave 3-comb
   ISYM   =      2    0-nonsym 1-usesym 2-fastsym
   LCORR  =      T    Harris-Foulkes like correction to forces

   POTIM  = 0.0150    time-step for ionic-motion
   TEIN   =    0.0    initial temperature
   TEBEG  =    0.0;   TEEND  =   0.0 temperature during run
   SMASS  =  -3.00    Nose mass-parameter (am)
   estimated Nose-frequenzy (Omega)   =  0.10E-29 period in steps =****** mass=  -0.125E-25a.u.
   SCALEE = 1.0000    scale energy and forces
   NPACO  =    256;   APACO  = 16.0  distance and # of slots for P.C.
   PSTRESS=    0.0 pullay stress

  Mass of Ions in am
   POMASS =  12.01  1.00 16.00 28.09183.85
  Ionic Valenz
   ZVAL   =   4.00  1.00  6.00  4.00  6.00
  Atomic Wigner-Seitz radii
   RWIGS  =  -1.00 -1.00 -1.00 -1.00 -1.00
  virtual crystal weights 
   VCA    =   1.00  1.00  1.00  1.00  1.00
   NELECT =    1258.0000    total number of electrons
   NUPDOWN=      -1.0000    fix difference up-down

 DOS related values:
   EMIN   =  10.00;   EMAX   =-10.00  energy-range for DOS
   EFERMI =   0.00
   ISMEAR =     0;   SIGMA  =   0.20  broadening in eV -4-tet -1-fermi 0-gaus

 Electronic relaxation 2 (details)
   IALGO  =     68    algorithm
   LDIAG  =      T    sub-space diagonalisation (order eigenvalues)
   LSUBROT=      F    optimize rotation matrix (better conditioning)
   TURBO    =      0    0=normal 1=particle mesh
   IRESTART =      0    0=no restart 2=restart with 2 vectors
   NREBOOT  =      0    no. of reboots
   NMIN     =      0    reboot dimension
   EREF     =   0.00    reference energy to select bands
   IMIX   =      4    mixing-type and parameters
     AMIX     =   0.40;   BMIX     =  1.00
     AMIX_MAG =   1.60;   BMIX_MAG =  1.00
     AMIN     =   0.10
     WC   =   100.;   INIMIX=   1;  MIXPRE=   1;  MAXMIX= -45

 Intra band minimization:
   WEIMIN = 0.0010     energy-eigenvalue tresh-hold
   EBREAK =  0.33E-07  absolut break condition
   DEPER  =   0.30     relativ break condition  

   TIME   =   0.40     timestep for ELM

  volume/ion in A,a.u.               =      41.32       278.86
  Fermi-wavevector in a.u.,A,eV,Ry     =   0.785120  1.483662  8.386815  0.616413
  Thomas-Fermi vector in A             =   1.889391

 Write flags
   LWAVE        =      T    write WAVECAR
   LDOWNSAMPLE  =      F    k-point downsampling of WAVECAR
   LCHARG       =      T    write CHGCAR
   LVTOT        =      F    write LOCPOT, total local potential
   LVHAR        =      F    write LOCPOT, Hartree potential only
   LELF         =      F    write electronic localiz. function (ELF)
   LORBIT       =      0    0 simple, 1 ext, 2 COOP (PROOUT), +10 PAW based schemes


 Dipole corrections
   LMONO  =      F    monopole corrections only (constant potential shift)
   LDIPOL =      T    correct potential (dipole corrections)
   IDIPOL =      3    1-x, 2-y, 3-z, 4-all directions 
   EPSILON=  1.0000000 bulk dielectric constant

 Exchange correlation treatment:
   GGA     =    RP    GGA type
   LEXCH   =     9    internal setting for exchange type
   VOSKOWN=      0    Vosko Wilk Nusair interpolation
   LHFCALC =     F    Hartree Fock is set to
   LHFONE  =     F    Hartree Fock one center treatment
   AEXX    =    0.0000 exact exchange contribution

 Linear response parameters
   LEPSILON=     F    determine dielectric tensor
   LRPA    =     F    only Hartree local field effects (RPA)
   LNABLA  =     F    use nabla operator in PAW spheres
   LVEL    =     F    velocity operator in full k-point grid
   LINTERFAST=   F  fast interpolation
   KINTER  =     0    interpolate to denser k-point grid
   CSHIFT  =0.1000    complex shift for real part using Kramers Kronig
   OMEGAMAX=  -1.0    maximum frequency
   DEG_THRESHOLD= 0.2000000E-02 threshold for treating states as degnerate
   RTIME   =   -0.100 relaxation time in fs
  (WPLASMAI=    0.000 imaginary part of plasma frequency in eV, 0.658/RTIME)
   DFIELD  = 0.0000000 0.0000000 0.0000000 field for delta impulse in time

 Orbital magnetization related:
   ORBITALMAG=     F  switch on orbital magnetization
   LCHIMAG   =     F  perturbation theory with respect to B field
   DQ        =  0.001000  dq finite difference perturbation B field
   LLRAUG    =     F  two centre corrections for induced B field



--------------------------------------------------------------------------------------------------------


 quickmin algorithm: (dynamic with friction)
   using selective dynamics as specified on POSCAR
 charge density and potential will be updated during run
 non-spin polarized calculation
 RMM-DIIS sequential band-by-band and
  variant of blocked Davidson during initial phase
 perform sub-space diagonalisation
    before iterative eigenvector-optimisation
 modified Broyden-mixing scheme, WC =      100.0
 initial mixing is a Kerker type mixing with AMIX =  0.4000 and BMIX =      1.0000
 Hartree-type preconditioning will be used
 using additional bands          139
 real space projection scheme for non local part
 use partial core corrections
 calculate Harris-corrections to forces   (improved forces if not selfconsistent)
 use gradient corrections 
 use of overlap-Matrix (Vanderbilt PP)
 Gauss-broadening in eV      SIGMA  =   0.20


--------------------------------------------------------------------------------------------------------


  energy-cutoff  :      500.00
  volume of cell :    11405.04
      direct lattice vectors                 reciprocal lattice vectors
    23.411294595  0.000000000  0.000000000     0.042714426  0.000000000  0.000000000
     0.000000000 18.121236951  0.000000000     0.000000000  0.055183871  0.000000000
     0.000000000  0.000000000 26.883366507     0.000000000  0.000000000  0.037197722

  length of vectors
    23.411294595 18.121236951 26.883366507     0.042714426  0.055183871  0.037197722



 old parameters found on file WAVECAR:
  energy-cutoff  :      500.00
  volume of cell :    11405.04
      direct lattice vectors                 reciprocal lattice vectors
    23.411294595  0.000000000  0.000000000     0.042714426  0.000000000  0.000000000
     0.000000000 18.121236951  0.000000000     0.000000000  0.055183871  0.000000000
     0.000000000  0.000000000 26.883366507     0.000000000  0.000000000  0.037197722

  length of vectors


 k-points in units of 2pi/SCALE and weight: KPOINTS created by Atomic Simulation Env
   0.00000000  0.00000000  0.00000000       0.111
   0.01423814  0.00000000  0.00000000       0.222
   0.00000000  0.01839462  0.00000000       0.222
   0.01423814  0.01839462  0.00000000       0.222
  -0.01423814  0.01839462  0.00000000       0.222

 k-points in reciprocal lattice and weights: KPOINTS created by Atomic Simulation Env
   0.00000000  0.00000000  0.00000000       0.111
   0.33333333  0.00000000  0.00000000       0.222
   0.00000000  0.33333333  0.00000000       0.222
   0.33333333  0.33333333  0.00000000       0.222
  -0.33333333  0.33333333  0.00000000       0.222

 position of ions in fractional coordinates (direct lattice) 
   0.59170178  0.43673334  0.70452691
   0.49288092  0.62932999  0.79024606
   0.54688035  0.61013720  0.76316493
   0.58228049  0.55394174  0.77523364
   0.76084038  0.07720703  0.65075211
   0.92642768  0.25107703  0.35633493
   0.79333970  0.17968696  0.37345652
   0.97453911  0.91601666  0.32530279
   0.62573266  0.93588091  0.37523120
   0.82053840  0.96741473  0.36899263
   0.74999307  0.11358682  0.45803819
   0.91551282  0.22186236  0.50946344
   0.58349286  0.27667161  0.30592717
   0.89227667  0.30762599  0.61665085
   0.58762267  0.33000339  0.61662930
   0.59434966  0.84396392  0.57746942
   0.03356613  0.30990988  0.65255265
   0.93527051  0.39192229  0.45410146
   0.74613838  0.50272006  0.42248819
   0.79936527  0.35620543  0.63555615
   0.59110202  0.54109089  0.37803474
   0.71843379  0.61834085  0.38346059
   0.84115291  0.51483466  0.41959617
   0.00476455  0.57620621  0.35777830
   0.82835870  0.68476474  0.46794226
   0.87983474  0.57197490  0.72081119
   0.51999031  0.95797283  0.42170307
   0.22309457  0.95256290  0.39320502
   0.21637369  0.21025952  0.31923033
   0.15750105  0.30221429  0.27898292
   0.34154688  0.12799377  0.33077276
   0.22271586  0.01816699  0.32273843
   0.51161300  0.79835654  0.54703946
   0.37532137  0.21192941  0.64675568
   0.24448951  0.06554922  0.59848789
   0.31538097  0.45954453  0.44243467
   0.40895618  0.41114292  0.40569060
   0.39849950  0.76552167  0.38878680
   0.24420236  0.62783814  0.29432688
   0.31174138  0.39088378  0.36925764
   0.40547429  0.55668772  0.33881989
   0.13935762  0.46038171  0.35192946
   0.59326935  0.67039519  0.35239799
   0.46900683  0.83383553  0.44382838
   0.12236358  0.29727851  0.61301322
   0.07395231  0.63599144  0.64635597
   0.24367429  0.36018717  0.68220341
   0.24617017  0.78792810  0.66954965
   0.60425776  0.39437475  0.73155896
   0.62768827  0.46375446  0.68577710
   0.49871978  0.68232192  0.80987990
   0.48159669  0.58693744  0.81782709
   0.45715410  0.63654368  0.76407146
   0.55878134  0.64600352  0.73208939
   0.62300982  0.54641340  0.75637997
   0.57297566  0.51666531  0.80615492
   0.36894173  0.62076316  0.43900002
   0.34681565  0.47644193  0.42038813
   0.86256900  0.53923548  0.69660385
   0.34879241  0.92991245  0.53058759
   0.03320262  0.90446370  0.52853480
   0.63635548  0.05127661  0.48937667
   0.06864615  0.02467349  0.39511073
   0.45189954  0.10197039  0.42059728
   0.80588415  0.18605824  0.48316661
   0.97374356  0.15391862  0.59872342
   0.27476529  0.27158094  0.44851223
   0.55635417  0.74749936  0.44175101
   0.39194191  0.94409313  0.61954437
   0.17751724  0.32237651  0.40527312
   0.86746382  0.65771501  0.63749511
   0.86569601  0.93958500  0.46703846
   0.30104714  0.73334490  0.45792526
   0.42161095  0.23366028  0.37959630
   0.81147161  0.43754067  0.52037044
   0.98372077  0.04478441  0.52108594
   0.51003091  0.42788154  0.62699230
   0.03453641  0.89235583  0.42940526
   0.96303654  0.27560337  0.35125762
   0.06962669  0.30851383  0.37637178
   0.20829566  0.70105236  0.39536010
   0.03890126  0.39150998  0.49910875
   0.23929761  0.25833881  0.58782269
   0.39743405  0.16683575  0.64438369
   0.45415642  0.53561557  0.58299361
   0.91076465  0.72181637  0.55757946
   0.86912727  0.08045141  0.44227833
   0.57257679  0.63973992  0.37613173
   0.14242656  0.13153356  0.37597224
   0.35020275  0.73904032  0.60667440
   0.91099605  0.81745564  0.48317962
   0.06133801  0.50927977  0.44225348
   0.70833903  0.52757462  0.41995768
   0.07548726  0.78921487  0.48299416
   0.70046477  0.79996378  0.43263529
   0.73041643  0.02153661  0.54300434
   0.91934446  0.27389122  0.63228669
   0.73599053  0.82606940  0.61328311
   0.62512195  0.49980207  0.48637871
   0.55657330  0.60211110  0.46724942
   0.42582143  0.21931129  0.55534136
   0.97829009  0.70065170  0.47679564
   0.65569419  0.56863656  0.63342668
   0.39729703  0.71802790  0.51570466
   0.60269007  0.49007352  0.38567099
   0.72128026  0.60452644  0.55754442
   0.14802726  0.33753079  0.62155411
   0.06624060  0.52062076  0.54216572
   0.81875302  0.85758254  0.53649984
   0.82821553  0.32779321  0.45190334
   0.52733628  0.27190231  0.53288717
   0.73783994  0.47223951  0.59575669
   0.55743394  0.14483917  0.39490854
   0.80596408  0.22882063  0.38329286
   0.23744622  0.92565881  0.50791956
   0.69388401  0.74993997  0.54121570
   0.92368703  0.92234627  0.55289842
   0.52573722  0.29018918  0.39855594
   0.46847643  0.96187964  0.54630649
   0.83810815  0.06723727  0.53982379
   0.53790325  0.08882555  0.48623709
   0.35019344  0.15901680  0.43963639
   0.01176032  0.93482196  0.33524376
   0.46992393  0.55821326  0.67743909
   0.65496522  0.89780557  0.37922825
   0.07629334  0.65843432  0.43588102
   0.45142936  0.37825122  0.55095104
   0.71921944  0.67282892  0.37958300
   0.44931826  0.67564328  0.60338524
   0.75255106  0.68173264  0.47629548
   0.77940371  0.09404642  0.62058490
   0.99327462  0.28042154  0.44840298
   0.53387847  0.48281990  0.53318976
   0.81677759  0.47146980  0.42344221
   0.23670917  0.11755487  0.60527779
   0.20353331  0.80310938  0.47053363
   0.23975705  0.53135745  0.52290761
   0.06105982  0.59765386  0.62389671
   0.04607407  0.57475476  0.35417863
   0.80135796  0.95175853  0.60583892
   0.53799091  0.00010556  0.40450275
   0.60696774  0.28568556  0.60507932
   0.86154611  0.97648891  0.36920633
   0.09491131  0.12143090  0.46708233
   0.17149083  0.17629726  0.53097302
   0.64098865  0.67684678  0.45481558
   0.43678778  0.38217655  0.38641325
   0.57420700  0.03057183  0.57101095
   0.15143775  0.56581609  0.38895836
   0.26773979  0.57474560  0.39230630
   0.44025846  0.29460625  0.47032443
   0.23800967  0.13091919  0.42990119
   0.07303090  0.12188903  0.56242454
   0.84599470  0.51768958  0.59960637
   0.62117943  0.25234794  0.41090545
   0.60266699  0.86393473  0.46722346
   0.03138539  0.16769789  0.38899188
   0.60699127  0.16808289  0.54750048
   0.13279973  0.91076271  0.47948708
   0.08010223  0.25267830  0.51200079
   0.37270264  0.07639767  0.56828769
   0.06610294  0.66891602  0.53572409
   0.66648838  0.38779294  0.43001156
   0.80031078  0.70290300  0.56419253
   0.70383856  0.92961650  0.47018456
   0.60158830  0.60749873  0.55169673
   0.72284030  0.26609272  0.45166811
   0.97736471  0.28641751  0.54709950
   0.15810986  0.60253127  0.57069579
   0.63333384  0.29919114  0.50780070
   0.82139047  0.37031547  0.60651141
   0.95857820  0.99965111  0.41695300
   0.28210545  0.16738255  0.51858684
   0.24925755  0.41544095  0.46105570
   0.27147729  0.82214031  0.56863713
   0.20366815  0.65798123  0.48688872
   0.14712345  0.44847794  0.49254493
   0.22500691  0.39538690  0.55676075
   0.91141698  0.42515266  0.47371881
   0.86978818  0.67696817  0.46415352
   0.73812021  0.06524268  0.44522965
   0.22218344  0.90218925  0.40794682
   0.25416924  0.37460444  0.64872208
   0.63129258  0.85662728  0.59293802
   0.41022327  0.76147046  0.42343739
   0.91777135  0.16844636  0.50824515
   0.13254706  0.41594418  0.33227266
   0.15514768  0.27593132  0.31056042
   0.37300515  0.10331511  0.34795342
   0.03505369  0.26492589  0.63298363
   0.57268926  0.22927626  0.32009968
   0.24525644  0.74269622  0.65024610
   0.20737430  0.62081311  0.31036906
   0.27537441  0.36459936  0.36737583
   0.36535081  0.56999470  0.34222079
   0.22638085  0.02858889  0.35811888
   0.24120333  0.16848629  0.32934297
   0.50127293  0.86470969  0.45484168
   0.55047936  0.80003242  0.53434749
   0.54734559  0.62357558  0.63151511
   0.47834346  0.09396631  0.59610322
   0.26222134  0.66703005  0.56873954
   0.44342071  0.81832450  0.58205205
   0.76690773  0.58978496  0.65004775
   0.84571671  0.80521543  0.62272781
   0.64216546  0.71356878  0.62088467
   0.00790633  0.00563311  0.60300907
   0.28462393  0.97418214  0.59369896
   0.50353574  0.94380124  0.62869761
   0.47756259  0.40753524  0.73436209
   0.08322528  0.57882837  0.40641308
   0.40940756  0.73669388  0.57539645
   0.84176382  0.41386118  0.46783897
   0.01708949  0.96289010  0.39361135
   0.01470021  0.25659834  0.39108141
   0.00940507  0.08713383  0.57237829
   0.61198490  0.63216217  0.60929975
   0.21401267  0.44846869  0.50969905
   0.91506213  0.72796900  0.49625454
   0.52057854  0.08286369  0.42598659
   0.41862517  0.14153309  0.58884160
   0.08345253  0.11158014  0.40698087
   0.70189793  0.01725432  0.48732303
   0.66505935  0.87044553  0.43747644
   0.65009874  0.47643512  0.43015089
   0.19846065  0.88489030  0.46399069
   0.21510413  0.33944868  0.60370591
   0.67484358  0.78749806  0.59432016
   0.21651442  0.61422384  0.53864262
   0.36878912  0.70753580  0.45920930
   0.79812945  0.86174442  0.59565064
   0.87980105  0.88471533  0.51190516
   0.57690165  0.54753839  0.51215159
   0.58979557  0.08793734  0.52524067
   0.85812234  0.12452130  0.49517595
   0.83687835  0.57692784  0.64595843
   0.13373852  0.33272697  0.35687228
   0.79065529  0.25234731  0.44187265
   0.39917610  0.14990291  0.39600320
   0.85694872  0.72347258  0.59655464
   0.28283385  0.90682203  0.54967669
   0.02307473  0.30285558  0.50224551
   0.57455938  0.66789815  0.43556436
   0.23024095  0.72500856  0.45196954
   0.59365416  0.25690905  0.54851602
   0.97552013  0.24466738  0.60252182
   0.88890636  0.99781706  0.42420019
   0.10475827  0.16772466  0.51782284
   0.04814566  0.70544516  0.48263019
   0.23208942  0.17819097  0.56102494
   0.56140781  0.23019333  0.38122611
   0.47907249  0.59877140  0.62316858
   0.28108192  0.74311655  0.59785651
   0.20850083  0.61580791  0.37179454
   0.74132296  0.68420381  0.53589022
   0.98649988  0.96279858  0.55034859
   0.70310456  0.70922622  0.43426040
   0.78820250  0.03221549  0.57670990
   0.45631390  0.30085966  0.40928789
   0.44986844  0.90747611  0.59459365
   0.50859581  0.01289784  0.58606168
   0.24424715  0.34281439  0.42094710
   0.65852534  0.30241018  0.45034791
   0.46005971  0.29109933  0.52888148
   0.33729937  0.56235061  0.39908301
   0.80429780  0.44961544  0.57997357
   0.06920979  0.87126722  0.48050551
   0.21190758  0.11686239  0.37359659
   0.07823286  0.46639306  0.49468762
   0.55757019  0.82474816  0.47473025
   0.71995668  0.55800796  0.60983825
   0.28664212  0.18250980  0.45911077
   0.08792696  0.59775873  0.56775059
   0.35366068  0.99086154  0.57824973
   0.48496917  0.45342089  0.57261617
   0.51344222  0.46576815  0.69506627

 position of ions in cartesian coordinates  (Angst):
  13.85250468  7.91414830 18.94005510
  11.53898037 11.40423789 21.24447445
  12.80317709 11.05644076 20.51644239
  13.63194001 10.03810955 20.84089020
  17.81225830  1.39908692 17.49440747
  21.68887124  4.54982630  9.57948250
  18.57310935  3.25615001 10.03976840
  22.81522226 16.59935504  8.74523415
  14.64921175 16.95931981 10.08747787
  19.20986618 17.53075152  9.91976410
  17.55830880  2.05833368 12.31360861
  21.43334022  4.02042038 13.69609250
  13.66032332  5.01363181  8.22435231
  20.88935204  5.57456348 16.57765073
  13.75700746  5.98006954 16.57707151
  13.91449504 15.29367021 15.52432203
   0.78582662  5.61595029 17.54281198
  21.89589338  7.10211669 12.20777585
  17.46806539  9.10990927 11.35790489
  18.71417588  6.45488302 17.08588895
  13.83846346  9.80523625 10.16284657
  16.81946503 11.20510106 10.30871170
  19.69247867  9.32944087 11.28015755
   0.11154425 10.44156933  9.61828518
  19.39294954 12.40878407 12.57986315
  20.59807030 10.36489265 19.37783135
  12.17364643 17.35965257 11.33679820
   5.22293275 17.26161801 10.57067472
   5.06558822  3.81016263  8.58198589
   3.68730349  5.47649684  7.50000000
   7.99605454  2.31940543  8.89228530
   5.21406665  0.32920834  8.67629559
  11.97752276 14.46720804 14.70626237
   8.78675921  3.84042314 17.38697003
   5.72381588  1.18783289 16.08936932
   7.38347683  8.32751530 11.89413327
   9.57419369  7.45041833 10.90632902
   9.32938926 13.87219961 10.45189795
   5.71709332 11.37720376  7.91249741
   7.29826932  7.08329756  9.92688859
   9.49267817 10.08787004  9.10861924
   3.26254231  8.34268607  9.46104865
  13.88920341 12.14839014  9.47364424
  10.98005707 15.11013128 11.93160111
   2.86468987  5.38705436 16.47985918
   1.73131935 11.52495164 17.37622439
   5.70473061  6.52703709 18.33992442
   5.76316235 14.27823182 17.99974850
  14.14645645  7.14655830 19.66676760
  14.69499492  8.40380450 18.43599709
  11.67567568 12.36451711 21.77229805
  11.27480189 10.63603236 21.98594553
  10.70256936 11.53495877 20.54081322
  13.08179458 11.70638294 19.68102732
  14.58546633  9.90168676 20.33404004
  13.41410191  9.36261447 21.67215811
   8.63740362 11.24899635 11.80179838
   8.11940335  8.63371715 11.30144811
  20.19385694  9.77161383 18.72705652
   8.16568185 16.85116384 14.26398068
   0.77731632 16.39000097 14.20879477
  14.89790566  0.92919560 13.15609244
   1.60709516  0.44711408 10.62190669
  10.57955331  1.84782959 11.30707087
  18.86679123  3.37160553 12.98914499
  22.79659725  2.78919575 16.09570100
   6.43261122  4.92138248 12.05751853
  13.02497128 13.54561294 11.87575437
   9.17586759 17.10813540 16.65543830
   4.15590840  5.84186119 10.89510594
  20.30845094 11.91860953 17.13801464
  20.26706432 17.02644236 12.55556607
   7.04790320 13.28911669 12.31057251
   9.87045805  4.23421333 10.20482654
  18.99760103  7.92877807 13.98930921
  23.03017685  0.81154894 14.00854439
  11.94048379  7.75374284 16.85566388
   0.80854198 16.17059137 11.54385891
  22.54593219  4.99427402  9.44298747
   1.63005096  5.59065222 10.11814055
   4.87647100 12.70393591 10.62861051
   0.91072893  7.09464512 13.41772355
   5.60226688  4.68141878 15.80265283
   9.30444551  3.02327013 17.32320291
  10.63238984  9.70601669 15.67283085
  21.32217943 13.08020542 14.98961291
  20.34739459  1.45787901 11.88993046
  13.40476402 11.59287863 10.11168720
   3.33439013  2.38355087 10.10739962
   8.19869978 13.39232484 16.30945021
  21.32759690 14.81330727 12.98949491
   1.43600223  9.22877939 11.88926245
  16.58313365  9.56030463 11.28987623
   1.76725442 14.30154965 12.98450890
  16.39878711 14.49633320 11.63069310
  17.09999416  0.39026995 14.59778482
  21.52304400  4.96324766 16.99799485
  17.23049102 14.96939929 16.48711460
  14.63491423  9.05703168 13.07549710
  13.03010146 10.91099800 12.56123752
   9.96903085  3.97419185 14.92944534
  22.90303759 12.69667544 12.81787194
  15.35064988 10.30439776 17.02864173
   9.30123784 13.01155366 13.86387748
  14.10975474  8.88073831 10.36813464
  16.88610465 10.95476680 14.98867095
   3.46550972  6.11647536 16.70946694
   1.55077817  9.43429212 14.57523982
  19.16806813 15.54045646 14.42292196
  19.38959778  5.94001838 12.14868300
  12.34562494  4.92720626 14.32580123
  17.27378816  8.55756406 16.01594548
  13.05025009  2.62466491 10.61647095
  18.86866258  4.14651294 10.30420244
   5.55892333 16.77408272 13.65458756
  16.24472298 13.58983996 14.54969992
  21.62470919 16.71405523 14.86377078
  12.30818899  5.25858696 10.71452528
  10.96763961 17.43044893 14.68655764
  19.62119679  1.21842259 14.51228086
  12.59301152  1.60962891 13.07168996
   8.19848185  2.88158105 11.81890631
   0.27532438 16.94013032  9.01248080
  11.00152766 10.11551475 18.21184338
  15.33358375 16.26934745 10.19493214
   1.78612593 11.93164436 11.71794928
  10.56854571  6.85437999 14.81141887
  16.83785811 12.19249221 10.20446890
  10.51912225 12.24349203 16.22102657
  17.61819454 12.35383870 12.80442605
  18.24684987  1.70423740 16.68341124
  23.25384464  5.08158513 12.05458163
  12.49878624  8.74929384 14.33393583
  19.12182067  8.54361594 11.38355200
   5.54166807  2.13023969 16.27190474
   4.76497818 14.55333538 12.64952801
   5.61302304  9.62885420 14.05751703
   1.42948936 10.83022719 16.77244396
   1.07865368 10.41526713  9.52151395
  18.76082721 17.24704193 16.28698964
  12.59506368  0.00191281 10.87439573
  14.20990060  5.17697580 16.26656902
  20.16990973 17.69518699  9.92550906
   2.22199659  2.20047811 12.55674536
   4.01482223  3.19472438 14.27434236
  15.00637423 12.26530096 12.22697399
  10.22576747  6.92551173 10.38808912
  13.44292934  0.55399941 15.35069665
   3.54535369 10.25328740 10.45651017
   6.26813510 10.41510113 10.54651395
  10.30702050  5.33862960 12.64390410
   5.57211440  2.37241773 11.55719116
   1.70974787  2.20878000 15.11986494
  19.80583106  9.38117551 16.11943787
  14.54261459  4.57285683 11.04652184
  14.10921452 15.65556596 12.56053950
   0.73477264  3.03889327 10.45741115
  14.21045153  3.04586979 14.71865605
   3.10901351 16.50414686 12.89022683
   1.87529692  4.57884335 13.76430500
   8.72545131  1.38442036 15.27748635
   1.54755535 12.12158568 14.40206697
  15.60335581  7.02728779 11.56015827
  18.73631142 12.73747176 15.16739460
  16.47777184 16.84580083 12.64014391
  14.08396097 11.00862837 14.83146543
  16.92262720  4.82192920 12.14235921
  22.88137305  5.19023954 14.70787644
   3.70155640 10.91861184 15.34222405
  14.82716522  5.42171361 13.65139239
  19.22981424  6.71057444 16.30506854
  22.44155659 18.11491461 11.20910044
   6.60445370  3.03317892 13.94135997
   5.83544193  7.52830396 12.39472924
   6.35563487 14.89819931 15.28688036
   4.76813504 11.92343385 13.08920785
   3.44435051  8.12697504 13.24126574
   5.26770298  7.16489968 14.96760327
  21.33745138  7.70429214 12.73515651
  20.36286723 12.26750071 12.47800922
  17.28034963  1.18227812 11.96927179
   5.20160188 16.34878525 10.96698378
   5.95043103  6.78829574 17.43983356
  14.77937657 15.52314596 15.94017007
   9.60385771 13.79878657 11.38342242
  21.48621551  3.05245637 13.66334053
   3.10309823  7.53742301  8.93260776
   3.63220806  5.00021683  8.34890949
   8.73253334  1.87219755  9.35415932
   0.82065230  4.80078475 17.01673096
  13.40739699  4.15476936  8.60535697
   5.74177072 13.45857419 17.48080414
   4.85490080 11.24990154  8.34376522
   6.44687148  6.60699146  9.87629901
   8.55333550 10.32900896  9.20004704
   5.29986877  0.51806602  9.62744117
   5.64688233  3.05318002  8.85384768
  11.73544815 15.66960912 12.22767567
  12.88743440 14.49757696 14.36505940
  12.81406878 11.29996091 16.97725204
  11.19863959  1.70278580 16.02526128
   6.13894114 12.08740951 15.28963355
  10.38105294 14.82905218 15.64751850
  17.95430286 10.68763296 17.47547191
  19.79932316 14.59149954 16.74101991
  15.03392479 12.93074887 16.69147022
   0.18509749  0.10207889 16.21091375
   6.66341466 17.65338540 15.96062662
  11.78842351 17.10284592 16.90150816
  11.18035838  7.38504270 19.74212523
   1.94841153 10.48908596 10.92575188
   9.58476098 13.34980438 15.46859361
  19.70678074  7.49967650 12.57708649
   0.40008717 17.44875972 10.58159830
   0.34415087  4.64987929 10.51358498
   0.22018476  1.57897279 15.38745526
  14.32735868 11.45556051 16.38002843
   5.01031375  8.12680738 13.70242633
  21.42278905 13.19169878 13.34099278
  12.18741762  1.50159257 11.45195358
   9.80055707  2.56475471 15.83004453
   1.95373172  2.02197018 10.94101594
  16.43233932  0.31266960 13.10088356
  15.56990047 15.77354966 11.76083937
  15.21965321  8.63359373 11.56390395
   4.64622068 16.03530673 12.47363180
   5.03586611  6.15122997 16.22964726
  15.79896194 14.27043886 15.97732673
   5.06888277 11.13049577 14.48052696
   8.63383069 12.82142384 12.34509184
  18.68524363 15.61587478 16.01309438
  20.59728161 16.03213617 13.76173401
  13.50601459  9.92207282 13.76835891
  13.80787788  1.59353340 14.12023756
  20.08975493  2.25647992 13.31199648
  19.59240557 10.45464604 17.36553723
   3.13099191  6.02942423  9.59392828
  18.51026388  4.57284540 11.87902451
   9.34522920  2.71642612 10.64589911
  20.06227883 13.11021803 16.03739702
   6.62150668 16.43273691 14.77715981
   0.54020935  5.48811771 13.50205012
  13.45117902 12.10314055 11.70943634
   5.39023881 13.13805192 12.15046292
  13.89821248  4.65550983 14.74595709
  22.83818916  4.43367560 16.19781487
  20.81044864 18.08167944 11.40392910
   2.45252665  3.03937832 13.92082109
   1.12715225 12.78353886 12.97472440
   5.43351385  3.22904073 15.08223920
  13.14328356  4.17138795 10.24864117
  11.21570712 10.85047847 16.75286946
   6.58049160 13.46619109 16.07239576
   4.88127424 11.15920103  9.99508876
  17.35533012 12.39861939 14.40653318
  23.09523923 17.44710120 14.79522294
  16.46058793 12.85205634 11.67438144
  18.45284093  0.58378451 15.50390370
  10.68289909  5.45194918 11.00303640
  10.53200255 16.44458965 15.98467889
  11.90688643  0.23372476 15.75531095
   5.71814202  6.21222076 11.31647527
  15.41693082  5.48004644 12.10686792
  10.77059335  5.27507989 14.21811466
   7.89661487 10.19048858 10.72869482
  18.82965284  8.14758784 15.59164208
   1.62029077 15.78843974 12.91760565
   4.96103075  2.11769098 10.04353415
   1.83153245  8.45161914 13.29886860
  13.05343995 14.94545689 12.76234739
  16.85511785 10.11179437 16.39450530
   6.71066321  3.30730338 12.34244318
   2.05848385 10.83212760 15.26304714
   8.27965444 17.95563681 15.54529941
  11.35375622  8.21654733 15.39385025
  12.02034704  8.44029496 18.68572127



--------------------------------------------------------------------------------------------------------


 k-point  1 :   0.0000 0.0000 0.0000  plane waves:  289505
 k-point  2 :   0.3333 0.0000 0.0000  plane waves:  289422
 k-point  3 :   0.0000 0.3333 0.0000  plane waves:  289550
 k-point  4 :   0.3333 0.3333 0.0000  plane waves:  289551
 k-point  5 :  -0.3333 0.3333 0.0000  plane waves:  289551

 maximum and minimum number of plane-waves per node :     72451    72309

 maximum number of plane-waves:    289551
 maximum index in each direction: 
   IXMAX=   43   IYMAX=   33   IZMAX=   49
   IXMIN=  -43   IYMIN=  -33   IZMIN=  -49


 real space projection operators:
  total allocation   :      13777.78 KBytes
  max/ min on nodes  :       3448.32       3441.73


 parallel 3D FFT for wavefunctions:
    minimum data exchange during FFTs selected (reduces bandwidth)
 parallel 3D FFT for charge:
    minimum data exchange during FFTs selected (reduces bandwidth)


 total amount of memory used by VASP MPI-rank0  2543037. kBytes
=======================================================================

   base      :      30000. kBytes
   nonlr-proj:      16891. kBytes
   fftplans  :      79581. kBytes
   grid      :     173670. kBytes
   one-center:       1073. kBytes
   wavefun   :    2241822. kBytes

     INWAV:  cpu time   19.3505: real time   32.3875
 Broyden mixing: mesh for mixing (old mesh)
   NGX = 85   NGY = 67   NGZ = 99
  (NGX  =256   NGY  =200   NGZ  =300)
  gives a total of 563805 points

 initial charge density was supplied:
 charge density of overlapping atoms calculated
 number of electron    1258.0000000 magnetization 
 keeping initial charge density in first step


--------------------------------------------------------------------------------------------------------


 Maximum index for non-local projection operator          663
 Maximum index for augmentation-charges         1122 (set IRDMAX)


--------------------------------------------------------------------------------------------------------


 First call to EWALD:  gamma=   0.079
 Maximum number of real-space cells 3x 3x 2
 Maximum number of reciprocal cells 3x 2x 3

    FEWALD:  cpu time    0.0781: real time    0.0784


--------------------------------------- Iteration      1(   1)  ---------------------------------------


    POTLOK:  cpu time    1.0494: real time    1.0665
    SETDIJ:  cpu time    2.0449: real time    2.0530
     EDDAV:  cpu time  355.3640: real time  356.9338
       DOS:  cpu time    0.0037: real time    0.0037
    CHARGE:  cpu time    9.0190: real time    9.0610
    MIXING:  cpu time    0.0209: real time    0.0210
    --------------------------------------------
      LOOP:  cpu time  367.5018: real time  369.1390

 eigenvalue-minimisations  :  8992
 total energy-change (2. order) :-0.2108570E+04  (-0.1859654E+03)
 number of electron    1258.0000079 magnetization 
 augmentation part      115.7263610 magnetization 

 DIPCOR: dipole corrections for dipol
 direction  3 min pos    73,
 dipolmoment           0.000000      0.000000      2.410744 electrons x Angstroem
 Tr[quadrupol]    -95311.993125

 energy correction for charged system         0.000000 eV
 dipol+quadrupol energy correction           -0.047252 eV
 added-field ion interaction        312.704018 eV  (added to PSCEN)


 Broyden mixing:
  rms(total) = 0.12480E+02    rms(broyden)= 0.12477E+02
  rms(prec ) = 0.12841E+02
  weight for this iteration     100.00

 Free energy of the ion-electron system (eV)
  ---------------------------------------------------
  alpha Z        PSCENC =       802.81971894
  Ewald energy   TEWEN  =    308775.89303003
  -Hartree energ DENC   =   -371003.72708494
  -exchange      EXHF   =         0.00000000
  -V(xc)+E(xc)   XCENC  =      3777.37143804
  PAW double counting   =     59955.48764796   -58973.29898038
  entropy T*S    EENTRO =        -0.00000000
  eigenvalues    EBANDS =    -20150.35851444
  atomic energy  EATOM  =     74707.24229009
  Solvation  Ediel_sol  =         0.00000000
  ---------------------------------------------------
  free energy    TOTEN  =     -2108.57045471 eV

  energy without entropy =    -2108.57045471  energy(sigma->0) =    -2108.57045471


--------------------------------------------------------------------------------------------------------




--------------------------------------- Iteration      1(   2)  ---------------------------------------


    POTLOK:  cpu time    1.0234: real time    1.0300
    SETDIJ:  cpu time    2.0538: real time    2.0622
    EDDIAG:  cpu time   54.8605: real time   55.1136
  RMM-DIIS:  cpu time   98.1781: real time   98.6374
    ORTHCH:  cpu time   22.2854: real time   22.3876
       DOS:  cpu time    0.0033: real time    0.0033
    CHARGE:  cpu time    8.9691: real time    9.0119
    MIXING:  cpu time    0.0216: real time    0.0217
    --------------------------------------------
      LOOP:  cpu time  187.3952: real time  188.2676

 eigenvalue-minimisations  :  7680
 total energy-change (2. order) : 0.2415559E+03  (-0.1056104E+03)
 number of electron    1258.0000054 magnetization 
 augmentation part       96.3179750 magnetization 

 DIPCOR: dipole corrections for dipol
 direction  3 min pos    73,
 dipolmoment           0.000000      0.000000      3.566715 electrons x Angstroem
 Tr[quadrupol]    -95318.951539

 energy correction for charged system         0.000000 eV
 dipol+quadrupol energy correction           -0.103432 eV
 added-field ion interaction        462.648043 eV  (added to PSCEN)


 Broyden mixing:
  rms(total) = 0.54429E+01    rms(broyden)= 0.54413E+01
  rms(prec ) = 0.55071E+01
  weight for this iteration     100.00

 eigenvalues of (default mixing * dielectric matrix)
  average eigenvalue GAMMA=   1.1879
  1.1879

 Free energy of the ion-electron system (eV)
  ---------------------------------------------------
  alpha Z        PSCENC =       952.70756467
  Ewald energy   TEWEN  =    308775.89303003
  -Hartree energ DENC   =   -373963.01671434
  -exchange      EXHF   =         0.00000000
  -V(xc)+E(xc)   XCENC  =      3956.27726275
  PAW double counting   =     99162.55032973   -98228.00698422
  entropy T*S    EENTRO =        -0.00000000
  eigenvalues    EBANDS =    -17230.66133989
  atomic energy  EATOM  =     74707.24229009
  Solvation  Ediel_sol  =         0.00000000
  ---------------------------------------------------
  free energy    TOTEN  =     -1867.01456120 eV

[...]
      6.66341     17.65338     15.96062        -0.000605     -0.001065     -0.003329
     11.78841     17.10284     16.90150        -0.005084     -0.001446     -0.003331
     11.18045      7.38498     19.74210         0.023933     -0.034192     -0.017910
      1.94841     10.48909     10.92575        -0.049681     -0.126279      0.044356
      9.58475     13.34980     15.46861        -0.003706     -0.001877      0.004084
     19.70678      7.49968     12.57709         0.147097     -0.171796     -0.278767
      0.40009     17.44876     10.58160         0.091842     -0.146537      0.311469
      0.34415      4.64988     10.51358         0.049237      0.025454      0.054436
      0.22020      1.57897     15.38747         0.007014     -0.002046      0.003557
     14.32736     11.45555     16.38002        -0.000074     -0.002909     -0.000936
      5.01032      8.12681     13.70243         0.001228      0.000687     -0.000624
     21.42279     13.19170     13.34099         0.314057      0.250603     -0.655958
     12.18742      1.50159     11.45195         0.159836     -0.055756      0.487891
      9.80055      2.56476     15.83003        -0.000513     -0.000389     -0.003674
      1.95373      2.02197     10.94102         0.081094     -0.109674      0.065447
     16.43234      0.31267     13.10088         0.097378     -0.067268     -0.267214
     15.56990     15.77355     11.76084        -0.493405      4.553050     -0.221965
     15.21965      8.63359     11.56390         0.042793      0.036696      0.259832
      4.64622     16.03531     12.47363        -0.685300      6.172476     -0.360290
      5.03589      6.15123     16.22964         0.009071     -0.000963     -0.003751
     15.79897     14.27042     15.97733         0.001123     -0.005576      0.000288
      5.06889     11.13050     14.48052         0.003566     -0.000030     -0.002623
      8.63383     12.82142     12.34509        -0.204117     -0.059737      0.234701
     18.68524     15.61587     16.01310        -0.000411     -0.001317      0.002187
     20.59730     16.03214     13.76173         0.005766      0.002668     -0.000948
     13.50600      9.92206     13.76835        -0.003562     -0.004886     -0.003187
     13.80787      1.59353     14.12024        -0.001366     -0.002567      0.001505
     20.08975      2.25648     13.31200        -0.124077      0.038401     -0.467116
     19.59243     10.45464     17.36552         0.008710     -0.003058     -0.005252
      3.13099      6.02942      9.59393        -0.104320     -0.104179      0.057040
     18.51026      4.57285     11.87902        -0.301380      0.098402      0.085884
      9.34523      2.71643     10.64590        -0.135768     -0.296124      0.240305
     20.06227     13.11020     16.03740        -0.003648     -0.005029     -0.000562
      6.62151     16.43275     14.77716         0.000936      0.001866     -0.000804
      0.54021      5.48812     13.50205         0.287336      0.179849     -0.403284
     13.45118     12.10314     11.70944         3.900669     -0.880011     -2.481690
      5.39024     13.13805     12.15046         0.110550     -0.588019      0.027952
     13.89821      4.65551     14.74595        -0.001269      0.001158      0.000416
     22.83820      4.43365     16.19784         0.005554     -0.007227      0.007753
     20.81045     18.08168     11.40393         0.032657      0.047716      0.099332
      2.45254      3.03941     13.92080         0.004552      0.010301     -0.007485
      1.12715     12.78354     12.97472        -0.175717     -0.580732     -0.235372
      5.43353      3.22903     15.08223         0.004701     -0.003242     -0.003348
     13.14328      4.17139     10.24864         8.347472     -5.351957     -3.561912
     11.21571     10.85047     16.75286         0.001982     -0.004774     -0.002750
      6.58048     13.46619     16.07239        -0.002980      0.000235     -0.003194
      4.88127     11.15920      9.99509         0.073394     -0.074714      0.024402
     17.35532     12.39860     14.40654        -0.003331     -0.007685      0.000066
     23.09525     17.44712     14.79521         0.002470      0.004448     -0.003738
     16.46059     12.85206     11.67438        -0.733766     -1.340804      0.372377
     18.45285      0.58376     15.50391         0.002366     -0.006048      0.002583
     10.68290      5.45195     11.00304        -1.163041      0.522320      0.513585
     10.53199     16.44458     15.98468        -0.002420     -0.002726      0.001537
     11.90688      0.23372     15.75532        -0.000769     -0.002066      0.001820
      5.71814      6.21222     11.31648         0.031995     -0.117952     -0.114093
     15.41693      5.48005     12.10687        -0.176538     -0.459951     -0.773430
     10.77058      5.27508     14.21812        -0.005058      0.000748     -0.000458
      7.89661     10.19049     10.72869        -0.117828     -0.083939     -0.033689
     18.82964      8.14755     15.59166        -0.003205     -0.011753      0.005876
      1.62029     15.78844     12.91761        -0.327232      6.439515     -0.549553
      4.96103      2.11769     10.04353        -0.074842     -0.040584      0.076836
      1.83153      8.45162     13.29887         0.023790     -0.129957     -0.286598
     13.05344     14.94546     12.76235       -22.285253    -15.872231      4.724592
     16.85513     10.11178     16.39451         0.001535     -0.003088      0.002862
      6.71066      3.30730     12.34244        -0.195246      0.002304     -0.786544
      2.05850     10.83212     15.26305         0.004880     -0.000275     -0.000917
      8.27965     17.95564     15.54529        -0.000183      0.000072     -0.002559
     11.35377      8.21653     15.39385         0.004464     -0.009113     -0.004109
     12.02039      8.44030     18.68569         0.004760     -0.012477     -0.018084
 -----------------------------------------------------------------------------------
    total drift:                               -0.058217     -0.270506      0.064232


--------------------------------------------------------------------------------------------------------



  FREE ENERGIE OF THE ION-ELECTRON SYSTEM (eV)
  ---------------------------------------------------
  free  energy   TOTEN  =     -1885.84744393 eV

  energy  without entropy=    -1885.84744393  energy(sigma->0) =    -1885.84744393

 d Force = 0.9029677E-04[ 0.874E-04, 0.932E-04]  d Energy = 0.1909141E-03-0.101E-03
 d Force =-0.1936206E+00[-0.194E+00,-0.194E+00]  d Ewald  =-0.1936207E+00 0.101E-06


--------------------------------------------------------------------------------------------------------


    POTLOK:  cpu time    3.0296: real time    3.0413


--------------------------------------------------------------------------------------------------------


 NEB: the previous image is higher in energy: F
 NEB: the next image is higher in energy    : F
 NEB: image is at an extrema
 NEB: diff energy (min, max):     0.089164    0.299047

 NEB: Tangent
 ----------------------------------------------
     -0.17170      0.03084      0.05147
      0.08523      0.10658      0.07168
      0.19688      0.22974      0.19712
      0.15185      0.23420      0.20122
      0.00377      0.00025      0.00219
      0.00000      0.00000      0.00000
      0.00000      0.00000      0.00000
      0.00000      0.00000      0.00000
      0.00000      0.00000      0.00000
      0.00000      0.00000      0.00000
      0.00000      0.00000      0.00000
     -0.00039     -0.00011      0.00299
      0.00000      0.00000      0.00000
     -0.00009      0.00084      0.00140
     -0.00238     -0.00125      0.00009
     -0.00279     -0.00362      0.00393
     -0.00286     -0.00228      0.00572
      0.00000      0.00000      0.00000
      0.00000      0.00000      0.00000
      0.00153      0.00185      0.00167
      0.00000      0.00000      0.00000
      0.00000      0.00000      0.00000
      0.00000      0.00000      0.00000
      0.00000      0.00000      0.00000
      0.00000      0.00000      0.00000
     -0.01782     -0.00350      0.00885
      0.00000      0.00000      0.00000
      0.00000      0.00000      0.00000
      0.00000      0.00000      0.00000
      0.00000      0.00000      0.00000
      0.00000      0.00000      0.00000
      0.00000      0.00000      0.00000
     -0.00120     -0.00281     -0.00200
     -0.00519     -0.01267      0.00169
      0.00114     -0.00074     -0.00067
      0.00000      0.00000      0.00000
      0.00000      0.00000      0.00000
      0.00000      0.00000      0.00000
      0.00000      0.00000      0.00000
      0.00000      0.00000      0.00000
      0.00000      0.00000      0.00000
      0.00000      0.00000      0.00000
      0.00000      0.00000      0.00000
      0.00000      0.00000      0.00000
     -0.00091      0.00224      0.00331
     -0.00383     -0.00025      0.00115
      0.00339      0.00133     -0.00066
     -0.00164     -0.00465      0.00350
     -0.10410      0.13610      0.12998
     -0.21757      0.12644      0.06296
     -0.07317      0.11978      0.08852
      0.09280      0.07204      0.04080
      0.13009      0.01372     -0.00588
      0.17023      0.19865      0.15883
      0.12052      0.12195      0.12033
      0.11109      0.17962      0.15007
      0.00000      0.00000      0.00000
      0.00000      0.00000      0.00000
      0.00258     -0.00339     -0.00383
      0.00043     -0.00934      0.00087
     -0.00001      0.00049     -0.00048
      0.00000      0.00000      0.00000
      0.00000      0.00000      0.00000
      0.00000      0.00000      0.00000
      0.00000      0.00000      0.00000
      0.00018      0.00040     -0.00013
      0.00000      0.00000      0.00000
      0.00000      0.00000      0.00000
      0.00389     -0.01415      0.00126
      0.00000      0.00000      0.00000
     -0.00114     -0.00068      0.00035
      0.00000      0.00000      0.00000
      0.00000      0.00000      0.00000
      0.00000      0.00000      0.00000
      0.00060     -0.00025     -0.00043
      0.00007      0.00009      0.00011
      0.05935     -0.14931     -0.13396
      0.00000      0.00000      0.00000
      0.00000      0.00000      0.00000
      0.00000      0.00000      0.00000
      0.00000      0.00000      0.00000
      0.00000      0.00000      0.00000
      0.00030     -0.00044      0.00022
      0.00405     -0.00652     -0.00052
      0.02180     -0.04354      0.04121
     -0.00229     -0.00081     -0.00104
      0.00000      0.00000      0.00000
      0.00000      0.00000      0.00000
      0.00000      0.00000      0.00000
     -0.00379     -0.00268      0.00142
      0.00000      0.00000      0.00000
      0.00000      0.00000      0.00000
      0.00000      0.00000      0.00000
      0.00000      0.00000      0.00000
      0.00000      0.00000      0.00000
     -0.00077     -0.00023     -0.00000
      0.00003     -0.00006     -0.00002
     -0.00118     -0.00070     -0.00281
      0.00000      0.00000      0.00000
      0.00000      0.00000      0.00000
      0.00049     -0.02106     -0.00841
      0.00000      0.00000      0.00000
     -0.00418     -0.01025      0.00348
      0.00510     -0.01288      0.00489
      0.00000      0.00000      0.00000
     -0.01427      0.00290     -0.00012
      0.00153      0.00080      0.00164
     -0.00037     -0.00008     -0.00030
     -0.00087     -0.00166     -0.00098
      0.00000      0.00000      0.00000
     -0.00589      0.02110      0.01512
     -0.00060      0.00030     -0.00474
      0.00000      0.00000      0.00000
      0.00000      0.00000      0.00000
      0.00000      0.00000      0.00000
     -0.00119      0.00132     -0.00352
     -0.00040     -0.00030     -0.00017
      0.00000      0.00000      0.00000
      0.00440     -0.02092      0.00162
     -0.00093     -0.00027     -0.00076
      0.00000      0.00000      0.00000
      0.00000      0.00000      0.00000
      0.00000      0.00000      0.00000
      0.06107     -0.08791      0.02820
      0.00000      0.00000      0.00000
      0.00000      0.00000      0.00000
     -0.06198     -0.00562     -0.04818
      0.00000      0.00000      0.00000
     -0.03714     -0.05233      0.03214
      0.00000      0.00000      0.00000
     -0.00016     -0.00037     -0.00021
      0.00000      0.00000      0.00000
     -0.04806     -0.01238     -0.08632
      0.00000      0.00000      0.00000
      0.00180     -0.00075     -0.00066
      0.00000      0.00000      0.00000
      0.00023     -0.00095     -0.00049
     -0.00138     -0.00055      0.00017
      0.00000      0.00000      0.00000
     -0.00034     -0.00073     -0.00179
      0.00000      0.00000      0.00000
      0.00640      0.00341      0.00013
      0.00000      0.00000      0.00000
      0.00000      0.00000      0.00000
      0.00025     -0.00071      0.00048
      0.00000      0.00000      0.00000
      0.00000      0.00000      0.00000
     -0.00058     -0.00774     -0.00492
      0.00000      0.00000      0.00000
      0.00000      0.00000      0.00000
      0.00000      0.00000      0.00000
      0.00000      0.00000      0.00000
      0.00026     -0.00015      0.00019
      0.00065     -0.00030     -0.00079
      0.00000      0.00000      0.00000
      0.00000      0.00000      0.00000
      0.00000      0.00000      0.00000
     -0.01032      0.00267     -0.00214
      0.00000      0.00000      0.00000
      0.00043     -0.00002     -0.00043
      0.00235     -0.01420      0.00210
      0.00073      0.00007     -0.00022
      0.00000      0.00000      0.00000
     -0.00270     -0.00293      0.00021
      0.00000      0.00000      0.00000
     -0.03363     -0.03360      0.02401
      0.00000      0.00000      0.00000
     -0.00023     -0.00025     -0.00070
     -0.00114     -0.00106     -0.00057
      0.00000      0.00000      0.00000
     -0.00133     -0.00078     -0.00120
      0.00000      0.00000      0.00000
      0.00071      0.00008      0.00011
      0.00000      0.00000      0.00000
     -0.00433     -0.00569     -0.00296
      0.00000      0.00000      0.00000
      0.00000      0.00000      0.00000
      0.00046     -0.00047      0.00010
      0.00000      0.00000      0.00000
      0.00000      0.00000      0.00000
      0.00000      0.00000      0.00000
      0.00000      0.00000      0.00000
      0.00394     -0.00023     -0.00137
     -0.00222     -0.00350      0.00169
      0.00000      0.00000      0.00000
      0.00000      0.00000      0.00000
      0.00000      0.00000      0.00000
      0.00000      0.00000      0.00000
      0.00000      0.00000      0.00000
      0.00128      0.00424     -0.00374
      0.00000      0.00000      0.00000
     -0.00382     -0.00172     -0.00095
      0.00000      0.00000      0.00000
      0.00000      0.00000      0.00000
      0.00000      0.00000      0.00000
      0.00000      0.00000      0.00000
      0.00000      0.00000      0.00000
      0.00000      0.00000      0.00000
     -0.00085     -0.00153     -0.00077
     -0.00498      0.02639      0.01994
      0.00139     -0.01595     -0.00034
     -0.00010     -0.00452      0.00111
      0.00891     -0.02523      0.01424
     -0.00085      0.00047     -0.00473
     -0.00246     -0.00175     -0.00094
      0.00123     -0.00571     -0.00571
      0.00005     -0.00019     -0.00015
      0.00237     -0.00829      0.00103
      0.00318     -0.01436      0.00263
     -0.15582     -0.24552     -0.15149
      0.00000      0.00000      0.00000
      0.00006     -0.02303      0.01145
      0.00000      0.00000      0.00000
      0.00000      0.00000      0.00000
      0.00000      0.00000      0.00000
     -0.00018     -0.00011      0.00028
     -0.00231     -0.00654      0.01439
     -0.00045     -0.00091      0.00012
      0.00000      0.00000      0.00000
      0.00000      0.00000      0.00000
      0.00128     -0.01544      0.00202
      0.00000      0.00000      0.00000
      0.00000      0.00000      0.00000
      0.00000      0.00000      0.00000
      0.00000      0.00000      0.00000
      0.00000      0.00000      0.00000
      0.00075     -0.00029      0.00067
     -0.00038     -0.00217     -0.00137
     -0.00147     -0.00165     -0.00032
      0.00000      0.00000      0.00000
     -0.00102     -0.00083     -0.00086
     -0.00069     -0.00044      0.00005
     -0.00969     -0.00763     -0.01079
     -0.00098     -0.00137      0.00044
      0.00000      0.00000      0.00000
     -0.00066     -0.00109     -0.00026
      0.00000      0.00000      0.00000
      0.00000      0.00000      0.00000
      0.00000      0.00000      0.00000
     -0.00196     -0.00179      0.00013
     -0.00111     -0.00574     -0.00066
      0.00000      0.00000      0.00000
      0.00000      0.00000      0.00000
      0.00000      0.00000      0.00000
     -0.00195      0.00434      0.00280
     -0.00004      0.00060     -0.00004
      0.00000      0.00000      0.00000
     -0.00013     -0.00018      0.00030
      0.00000      0.00000      0.00000
      0.00016     -0.00036      0.00001
      0.00000      0.00000      0.00000
      0.02369     -0.02453      0.02704
     -0.00356     -0.00309      0.00042
      0.00000      0.00000      0.00000
     -0.00255     -0.00077      0.00013
     -0.00054     -0.00007      0.00014
      0.00000      0.00000      0.00000
     -0.00041     -0.00033      0.00021
      0.00000      0.00000      0.00000
      0.00432     -0.01843      0.00512
      0.00240     -0.01553      0.00031
      0.00000      0.00000      0.00000
      0.00000      0.00000      0.00000
     -0.01234     -0.01584     -0.00560
      0.00000      0.00000      0.00000
      0.00018     -0.00004     -0.00017
      0.00000      0.00000      0.00000
      0.00000      0.00000      0.00000
      0.00000      0.00000      0.00000
      0.00000      0.00000      0.00000
     -0.00352     -0.00209      0.00049
      0.00000      0.00000      0.00000
     -0.00146     -0.00017      0.00062
      0.00281     -0.01349      0.00271
     -0.01224     -0.03860     -0.07611
     -0.16621     -0.23194     -0.15425

 NEB: forces: par spring, perp REAL, dneb     2.210077    0.172780    0.000000
 NEB: distance to prev, next image, angle between     1.265210    0.823194  118.277625
 NEB: projections on to tangent (spring, REAL)    -2.210077    0.025863

 stress matrix after NEB project (eV)
    -32.60784      0.08911      0.32041
      0.08911    -33.56012     -0.41178
      0.32041     -0.41178    -25.60366
  FORCES: max atom, RMS     0.047668    0.010516
  FORCE total and by dimension    0.174705    0.045455
  Stress total and by dimension   53.344737   33.560122


--------------------------------------------------------------------------------------------------------


  
 reached required accuracy - stopping structural energy minimisation
 writing wavefunctions
     LOOP+:  cpu time  562.1530: real time  574.5111
    4ORBIT:  cpu time    0.0000: real time    0.0000

 total amount of memory used by VASP MPI-rank0  2543037. kBytes
=======================================================================

   base      :      30000. kBytes
   nonlr-proj:      16891. kBytes
   fftplans  :      79581. kBytes
   grid      :     173670. kBytes
   one-center:       1073. kBytes
   wavefun   :    2241822. kBytes

  
  
 General timing and accounting informations for this job:
 ========================================================
  
                  Total CPU time used (sec):     4481.417
                            User time (sec):     4471.008
                          System time (sec):       10.408
                         Elapsed time (sec):     4532.846
  
                   Maximum memory used (kb):     2797088.
                   Average memory used (kb):           0.
  
                          Minor page faults:      1018804
                          Major page faults:           92
                 Voluntary context switches:        34237
