 vasp.5.4.4.18Apr17-6-g9f103f2a35 (build Oct 20 2021 08:33:53) complex           
 executed on             LinuxGNU date 2024.04.03  23:22:15
 running on   64 total cores
 distrk:  each k-point on   64 cores,    1 groups
 distr:  one band on NCORES_PER_BAND=   4 cores,   16 groups


--------------------------------------------------------------------------------------------------------


 INCAR:
 POTCAR:    PAW_PBE C 08Apr2002                   
 POTCAR:    PAW_PBE H 15Jun2001                   
 POTCAR:    PAW_PBE O 08Apr2002                   
 POTCAR:    PAW_PBE Si 05Jan2001                  
 POTCAR:    PAW_PBE W 08Apr2002                   
 POTCAR:    PAW_PBE C 08Apr2002                   
   VRHFIN =C: s2p2                                                              
   LEXCH  = PE                                                                  
   EATOM  =   147.1560 eV,   10.8157 Ry                                         
                                                                                
   TITEL  = PAW_PBE C 08Apr2002                                                 
   LULTRA =        F    use ultrasoft PP ?                                      
   IUNSCR =        1    unscreen: 0-lin 1-nonlin 2-no                           
   RPACOR =    1.200    partial core radius                                     
   POMASS =   12.011; ZVAL   =    4.000    mass and valenz                      
   RCORE  =    1.500    outmost cutoff radius                                   
   RWIGS  =    1.630; RWIGS  =    0.863    wigner-seitz radius (au A)           
   ENMAX  =  400.000; ENMIN  =  300.000 eV                                      
   ICORE  =        2    local potential                                         
   LCOR   =        T    correct aug charges                                     
   LPAW   =        T    paw PP                                                  
   EAUG   =  644.873                                                            
   DEXC   =    0.000                                                            
   RMAX   =    1.529    core radius for proj-oper                               
   RAUG   =    1.300    factor for augmentation sphere                          
   RDEP   =    1.501    radius for radial grids                                 
   RDEPT  =    1.300    core radius for aug-charge                              
                                                                                
   Atomic configuration                                                         
    4 entries                                                                   
     n  l   j            E        occ.                                          
     1  0  0.50      -273.3789   2.0000                                         
     2  0  0.50       -13.7508   2.0000                                         
     2  1  0.50        -5.2854   2.0000                                         
     3  2  1.50        -5.4423   0.0000                                         
   Description                                                                  
     l       E           TYP  RCUT    TYP  RCUT                                 
     0    -13.7508458     23  1.200                                             
     0     -8.2022199     23  1.200                                             
     1     -5.2854383     23  1.500                                             
     1     34.0145650     23  1.500                                             
     2     -5.4423304      7  1.500                                             
  local pseudopotential read in
  partial core-charges read in
  partial kinetic energy density read in
  atomic valenz-charges read in
  non local Contribution for L=           0  read in
    real space projection operators read in
  non local Contribution for L=           0  read in
    real space projection operators read in
  non local Contribution for L=           1  read in
    real space projection operators read in
  non local Contribution for L=           1  read in
    real space projection operators read in
    PAW grid and wavefunctions read in

   number of l-projection  operators is LMAX  =           4
   number of lm-projection operators is LMMAX =           8

 POTCAR:    PAW_PBE H 15Jun2001                   
   VRHFIN =H: ultrasoft test                                                    
   LEXCH  = PE                                                                  
   EATOM  =    12.4884 eV,    0.9179 Ry                                         
                                                                                
   TITEL  = PAW_PBE H 15Jun2001                                                 
   LULTRA =        F    use ultrasoft PP ?                                      
   IUNSCR =        0    unscreen: 0-lin 1-nonlin 2-no                           
   RPACOR =    0.000    partial core radius                                     
   POMASS =    1.000; ZVAL   =    1.000    mass and valenz                      
   RCORE  =    1.100    outmost cutoff radius                                   
   RWIGS  =    0.700; RWIGS  =    0.370    wigner-seitz radius (au A)           
   ENMAX  =  250.000; ENMIN  =  200.000 eV                                      
   RCLOC  =    0.701    cutoff for local pot                                    
   LCOR   =        T    correct aug charges                                     
   LPAW   =        T    paw PP                                                  
   EAUG   =  400.000                                                            
   RMAX   =    1.123    core radius for proj-oper                               
   RAUG   =    1.200    factor for augmentation sphere                          
   RDEP   =    1.112    radius for radial grids                                 
   RDEPT  =    0.926    core radius for aug-charge                              
                                                                                
   Atomic configuration                                                         
    2 entries                                                                   
     n  l   j            E        occ.                                          
     1  0  0.50        -6.4927   1.0000                                         
     2  1  0.50        -3.4015   0.0000                                         
   Description                                                                  
     l       E           TYP  RCUT    TYP  RCUT                                 
     0     -6.4927494     23  1.100                                             
     0      6.8029130     23  1.100                                             
     1     -4.0817478     23  1.100                                             
  local pseudopotential read in
  atomic valenz-charges read in
  non local Contribution for L=           0  read in
    real space projection operators read in
  non local Contribution for L=           0  read in
    real space projection operators read in
  non local Contribution for L=           1  read in
    real space projection operators read in
    PAW grid and wavefunctions read in

   number of l-projection  operators is LMAX  =           3
   number of lm-projection operators is LMMAX =           5

 POTCAR:    PAW_PBE O 08Apr2002                   
   VRHFIN =O: s2p4                                                              
   LEXCH  = PE                                                                  
   EATOM  =   432.3788 eV,   31.7789 Ry                                         
                                                                                
   TITEL  = PAW_PBE O 08Apr2002                                                 
   LULTRA =        F    use ultrasoft PP ?                                      
   IUNSCR =        1    unscreen: 0-lin 1-nonlin 2-no                           
   RPACOR =    1.200    partial core radius                                     
   POMASS =   16.000; ZVAL   =    6.000    mass and valenz                      
   RCORE  =    1.520    outmost cutoff radius                                   
   RWIGS  =    1.550; RWIGS  =    0.820    wigner-seitz radius (au A)           
   ENMAX  =  400.000; ENMIN  =  300.000 eV                                      
   ICORE  =        2    local potential                                         
   LCOR   =        T    correct aug charges                                     
   LPAW   =        T    paw PP                                                  
   EAUG   =  605.392                                                            
   DEXC   =    0.000                                                            
   RMAX   =    1.553    core radius for proj-oper                               
   RAUG   =    1.300    factor for augmentation sphere                          
   RDEP   =    1.550    radius for radial grids                                 
   RDEPT  =    1.329    core radius for aug-charge                              
                                                                                
   Atomic configuration                                                         
    4 entries                                                                   
     n  l   j            E        occ.                                          
     1  0  0.50      -514.6923   2.0000                                         
     2  0  0.50       -23.9615   2.0000                                         
     2  1  0.50        -9.0305   4.0000                                         
     3  2  1.50        -9.5241   0.0000                                         
   Description                                                                  
     l       E           TYP  RCUT    TYP  RCUT                                 
     0    -23.9615318     23  1.200                                             
     0     -9.5240782     23  1.200                                             
     1     -9.0304911     23  1.520                                             
     1      8.1634956     23  1.520                                             
     2     -9.5240782      7  1.500                                             
  local pseudopotential read in
  partial core-charges read in
  partial kinetic energy density read in
  kinetic energy density of atom read in
  atomic valenz-charges read in
  non local Contribution for L=           0  read in
    real space projection operators read in
  non local Contribution for L=           0  read in
    real space projection operators read in
  non local Contribution for L=           1  read in
    real space projection operators read in
  non local Contribution for L=           1  read in
    real space projection operators read in
    PAW grid and wavefunctions read in

   number of l-projection  operators is LMAX  =           4
   number of lm-projection operators is LMMAX =           8

 POTCAR:    PAW_PBE Si 05Jan2001                  
   VRHFIN =Si: s2p2                                                             
   LEXCH  = PE                                                                  
   EATOM  =   103.0669 eV,    7.5752 Ry                                         
                                                                                
   TITEL  = PAW_PBE Si 05Jan2001                                                
   LULTRA =        F    use ultrasoft PP ?                                      
   IUNSCR =        1    unscreen: 0-lin 1-nonlin 2-no                           
   RPACOR =    1.500    partial core radius                                     
   POMASS =   28.085; ZVAL   =    4.000    mass and valenz                      
   RCORE  =    1.900    outmost cutoff radius                                   
   RWIGS  =    2.480; RWIGS  =    1.312    wigner-seitz radius (au A)           
   ENMAX  =  245.345; ENMIN  =  184.009 eV                                      
   ICORE  =        2    local potential                                         
   LCOR   =        T    correct aug charges                                     
   LPAW   =        T    paw PP                                                  
   EAUG   =  322.069                                                            
   DEXC   =    0.000                                                            
   RMAX   =    1.950    core radius for proj-oper                               
   RAUG   =    1.300    factor for augmentation sphere                          
   RDEP   =    1.993    radius for radial grids                                 
   RDEPT  =    1.837    core radius for aug-charge                              
                                                                                
   Atomic configuration                                                         
    6 entries                                                                   
     n  l   j            E        occ.                                          
     1  0  0.50     -1785.8828   2.0000                                         
     2  0  0.50      -139.4969   2.0000                                         
     2  1  1.50       -95.5546   6.0000                                         
     3  0  0.50       -10.8127   2.0000                                         
     3  1  0.50        -4.0811   2.0000                                         
     3  2  1.50        -4.0817   0.0000                                         
   Description                                                                  
     l       E           TYP  RCUT    TYP  RCUT                                 
     0    -10.8127223     23  1.900                                             
     0     -7.6451159     23  1.900                                             
     1     -4.0811372     23  1.900                                             
     1      2.4879257     23  1.900                                             
     2     -4.0817478      7  1.900                                             
  local pseudopotential read in
  partial core-charges read in
  partial kinetic energy density read in
  atomic valenz-charges read in
  non local Contribution for L=           0  read in
    real space projection operators read in
  non local Contribution for L=           0  read in
    real space projection operators read in
  non local Contribution for L=           1  read in
    real space projection operators read in
  non local Contribution for L=           1  read in
    real space projection operators read in
    PAW grid and wavefunctions read in

   number of l-projection  operators is LMAX  =           4
   number of lm-projection operators is LMMAX =           8

 POTCAR:    PAW_PBE W 08Apr2002                   
   VRHFIN =W : 6s5d                                                             
   LEXCH  = PE                                                                  
   EATOM  =   204.6103 eV,   15.0384 Ry                                         
                                                                                
   TITEL  = PAW_PBE W 08Apr2002                                                 
   LULTRA =        F    use ultrasoft PP ?                                      
   IUNSCR =        1    unscreen: 0-lin 1-nonlin 2-no                           
   RPACOR =    2.330    partial core radius                                     
   POMASS =  183.850; ZVAL   =    6.000    mass and valenz                      
   RCORE  =    2.750    outmost cutoff radius                                   
   RWIGS  =    2.750; RWIGS  =    1.455    wigner-seitz radius (au A)           
   ENMAX  =  223.057; ENMIN  =  167.293 eV                                      
   RCLOC  =    2.147    cutoff for local pot                                    
   LCOR   =        T    correct aug charges                                     
   LPAW   =        T    paw PP                                                  
   EAUG   =  373.438                                                            
   DEXC   =    0.000                                                            
   RMAX   =    2.801    core radius for proj-oper                               
   RAUG   =    1.300    factor for augmentation sphere                          
   RDEP   =    2.886    radius for radial grids                                 
   RDEPT  =    2.230    core radius for aug-charge                              
                                                                                
   Atomic configuration                                                         
   16 entries                                                                   
     n  l   j            E        occ.                                          
     1  0  0.50    -69465.5836   2.0000                                         
     2  0  0.50    -11986.2642   2.0000                                         
     2  1  1.50    -10479.8616   6.0000                                         
     3  0  0.50     -2759.0758   2.0000                                         
     3  1  1.50     -2313.1857   6.0000                                         
     3  2  2.50     -1801.1185  10.0000                                         
     4  0  0.50      -567.6791   2.0000                                         
     4  1  1.50      -421.4694   6.0000                                         
     4  2  2.50      -236.3473  10.0000                                         
     4  3  3.50       -31.2666  14.0000                                         
     5  0  0.50       -77.1085   2.0000                                         
     5  1  1.50       -41.3856   6.0000                                         
     5  2  2.50        -3.3185   5.0000                                         
     6  0  0.50        -5.1438   1.0000                                         
     6  1  0.50        -3.8096   0.0000                                         
     5  3  2.50        -1.3606   0.0000                                         
   Description                                                                  
     l       E           TYP  RCUT    TYP  RCUT                                 
     2     -3.3185288     23  2.500                                             
     2     -1.5965414     23  2.500                                             
     0     -5.1438054     23  2.500                                             
     0      4.9117504     23  2.500                                             
     1      2.7211652     23  2.750                                             
     1     27.2116520     23  2.750                                             
  local pseudopotential read in
  partial core-charges read in
  partial kinetic energy density read in
  atomic valenz-charges read in
  non local Contribution for L=           2  read in
    real space projection operators read in
  non local Contribution for L=           2  read in
    real space projection operators read in
  non local Contribution for L=           0  read in
    real space projection operators read in
  non local Contribution for L=           0  read in
    real space projection operators read in
  non local Contribution for L=           1  read in
    real space projection operators read in
  non local Contribution for L=           1  read in
    real space projection operators read in
    PAW grid and wavefunctions read in

   number of l-projection  operators is LMAX  =           6
   number of lm-projection operators is LMMAX =          18

 Optimization of the real space projectors (new method)

 maximal supplied QI-value         = 25.13
 optimisation between [QCUT,QGAM] = [ 11.31, 22.87] = [ 35.82,146.48] Ry 
 Optimized for a Real-space Cutoff    1.00 Angstroem

   l    n(q)    QCUT    max X(q) W(low)/X(q) W(high)/X(q)  e(spline) 
   0      7    11.310   115.676    0.43E-03    0.13E-02    0.19E-06
   0      7    11.310    87.132    0.43E-03    0.13E-02    0.18E-06
   1      6    11.310     4.429    0.42E-03    0.74E-03    0.11E-06
   1      6    11.310     2.733    0.34E-03    0.55E-03    0.92E-07
 Optimization of the real space projectors (new method)

 maximal supplied QI-value         = 34.20
 optimisation between [QCUT,QGAM] = [ 11.29, 22.57] = [ 35.68,142.71] Ry 
 Optimized for a Real-space Cutoff    1.16 Angstroem

   l    n(q)    QCUT    max X(q) W(low)/X(q) W(high)/X(q)  e(spline) 
   0      8    11.287    19.460    0.40E-03    0.73E-03    0.16E-06
   0      8    11.287    12.209    0.38E-03    0.70E-03    0.15E-06
   1      7    11.287     4.655    0.22E-03    0.25E-04    0.22E-06
 Optimization of the real space projectors (new method)

 maximal supplied QI-value         = 24.76
 optimisation between [QCUT,QGAM] = [ 11.39, 22.77] = [ 36.31,145.25] Ry 
 Optimized for a Real-space Cutoff    1.00 Angstroem

   l    n(q)    QCUT    max X(q) W(low)/X(q) W(high)/X(q)  e(spline) 
   0      7    11.387    20.381    0.39E-03    0.13E-02    0.15E-06
   0      7    11.387    15.268    0.42E-03    0.14E-02    0.17E-06
   1      6    11.387     5.964    0.41E-03    0.11E-02    0.17E-06
   1      6    11.387     5.382    0.39E-03    0.87E-03    0.15E-06
 Optimization of the real space projectors (new method)

 maximal supplied QI-value         = 19.84
 optimisation between [QCUT,QGAM] = [ 11.31, 22.82] = [ 35.82,145.81] Ry 
 Optimized for a Real-space Cutoff    1.16 Angstroem

   l    n(q)    QCUT    max X(q) W(low)/X(q) W(high)/X(q)  e(spline) 
   0      8    11.310   159.560    0.27E-03    0.30E-03    0.39E-07
   0      8    11.310   115.863    0.27E-03    0.30E-03    0.38E-07
   1      7    11.310    88.339    0.28E-03    0.28E-03    0.77E-07
   1      7    11.310    48.592    0.27E-03    0.27E-03    0.74E-07
 Optimization of the real space projectors (new method)

 maximal supplied QI-value         = 13.61
 optimisation between [QCUT,QGAM] = [ 11.43, 22.86] = [ 36.58,146.31] Ry 
 Optimized for a Real-space Cutoff    1.56 Angstroem

   l    n(q)    QCUT    max X(q) W(low)/X(q) W(high)/X(q)  e(spline) 
   2     10    11.429   130.855    0.22E-03    0.64E-03    0.11E-05
   2     10    11.429   114.007    0.22E-03    0.64E-03    0.11E-05
   0     11    11.429    84.709    0.39E-04    0.67E-04    0.23E-06
   0     11    11.429    49.163    0.35E-04    0.62E-04    0.21E-06
   1     10    11.429    15.765    0.84E-04    0.15E-03    0.24E-06
   1     10    11.429    10.638    0.58E-04    0.12E-03    0.19E-06

 ----------------------------------------------------------------------------- 
|                                                                             |
|  ADVICE TO THIS USER RUNNING 'VASP/VAMP'   (HEAR YOUR MASTER'S VOICE ...):  |
|                                                                             |
|      You enforced a specific xc-type in the INCAR file,                     |
|      a different type was found on the POTCAR file                          |
|          I HOPE YOU KNOW, WHAT YOU ARE  DOING                               |
|                                                                             |
 ----------------------------------------------------------------------------- 

  PAW_PBE C 08Apr2002                   :
 energy of atom  1       EATOM= -147.1560
 kinetic energy error for atom=    0.0076 (will be added to EATOM!!)
  PAW_PBE H 15Jun2001                   :
 energy of atom  2       EATOM=  -12.4884
 kinetic energy error for atom=    0.0020 (will be added to EATOM!!)
  PAW_PBE O 08Apr2002                   :
 energy of atom  3       EATOM= -432.3788
 kinetic energy error for atom=    0.0224 (will be added to EATOM!!)
  PAW_PBE Si 05Jan2001                  :
 energy of atom  4       EATOM= -103.0669
 kinetic energy error for atom=    0.0006 (will be added to EATOM!!)
  PAW_PBE W 08Apr2002                   :
 energy of atom  5       EATOM= -204.6103
 kinetic energy error for atom=    0.0017 (will be added to EATOM!!)


 POSCAR:  C  H  O Si  W                          
  positions in direct lattice
  velocities in cartesian coordinates
 exchange correlation table for  LEXCH =        9
   RHO(1)=    0.500       N(1)  =     2000
   RHO(2)=  100.500       N(2)  =     4000

 VTST: version 3.2, (02/03/18)

 CHAIN: initializing optimizer
 
 OPT: Using Conjugate-Gradient optimizer
 OPT: CG, Init
 OPT: CG, FDSTEP      0.005000
 OPT: CG, MAXMOVE      0.200000
 
 CHAIN: Read ICHAIN            2

 POSCAR:  C  H  O Si  W                          
  positions in direct lattice
  velocities in cartesian coordinates
 CHAIN: Running the Dimer method

 Dimer: -----------------
 Dimer: Input Parameters
 Dimer:   Seed      0
 Dimer: RotMax      4
 Dimer:     dR      0.005000
 Dimer:  FNMax      1.000000
 Dimer:  FNMin      0.010000
 Dimer: -----------------



--------------------------------------------------------------------------------------------------------


 ion  position               nearest neighbor table
   1  0.564  0.439  0.776-  50 1.09   2 1.46   3 1.50
   2  0.542  0.494  0.741-  49 1.18   1 1.46   4 1.55 276 2.05
   3  0.546  0.359  0.776-  52 1.10  51 1.10  53 1.11   1 1.50
   4  0.561  0.574  0.753-  56 1.09  54 1.10  55 1.10   2 1.55
   5  0.761  0.103  0.651- 131 0.97
   6  0.926  0.279  0.356-  79 0.98
   7  0.793  0.207  0.373- 114 0.97
   8  0.975  0.944  0.325- 123 0.97
   9  0.626  0.963  0.375- 125 0.98
  10  0.821  0.995  0.369- 143 0.97
  11  0.750  0.141  0.458- 181 0.98
  12  0.915  0.249  0.509- 186 0.97
  13  0.583  0.304  0.306- 191 0.97
  14  0.891  0.335  0.616-  97 0.98
  15  0.584  0.361  0.613- 142 0.98
  16  0.593  0.871  0.578- 184 0.99
  17  0.034  0.338  0.652- 190 0.97
  18  0.935  0.420  0.454- 179 0.98
  19  0.746  0.530  0.422-  93 1.00
  20  0.798  0.383  0.635- 171 0.97
  21  0.591  0.569  0.378- 105 0.99
  22  0.718  0.646  0.383- 128 0.99
  23  0.841  0.542  0.420- 134 0.98
  24  0.005  0.604  0.358- 139 0.97
  25  0.828  0.712  0.468- 180 0.99
  26  0.878  0.599  0.721-  59 0.97
  27  0.520  0.986  0.422- 141 0.99
  28  0.223  0.980  0.393- 182 1.00
  29  0.216  0.238  0.319- 197 0.99
  30  0.158  0.330  0.279- 188 0.97
  31  0.342  0.156  0.331- 189 0.98
  32  0.223  0.046  0.323- 196 0.97
  33  0.512  0.824  0.547- 199 0.97
  34  0.385  0.246  0.648-  84 0.97
  35  0.244  0.093  0.599- 135 0.98
  36  0.315  0.487  0.442-  58 0.99
  37  0.409  0.439  0.406- 147 0.98
  38  0.398  0.793  0.389- 185 0.97
  39  0.244  0.655  0.294- 193 0.97
  40  0.312  0.418  0.369- 194 0.98
  41  0.405  0.584  0.339- 195 0.97
  42  0.139  0.488  0.352- 187 0.98
  43  0.593  0.698  0.352-  88 0.97
  44  0.469  0.861  0.444- 198 0.99
  45  0.122  0.323  0.612- 107 0.97
  46  0.074  0.665  0.646- 138 0.97
  47  0.245  0.383  0.682- 183 0.97
  48  0.245  0.815  0.669- 192 0.97
  49  0.578  0.461  0.720-   2 1.18
  50  0.597  0.458  0.802-   1 1.09
  51  0.550  0.338  0.814-   3 1.10
  52  0.502  0.353  0.763-   3 1.10
  53  0.574  0.324  0.753-   3 1.11
  54  0.533  0.596  0.783-   4 1.10
  55  0.606  0.574  0.768-   4 1.10
  56  0.560  0.611  0.722-   4 1.09
  57  0.369  0.648  0.439- 230 1.66 265 1.68
  58  0.347  0.504  0.420-  36 0.99 265 1.67
  59  0.861  0.566  0.697-  26 0.97 236 1.64
  60  0.349  0.958  0.531- 241 1.68 274 1.70
  61  0.033  0.933  0.528- 256 1.63 267 1.66
  62  0.636  0.079  0.489- 234 1.60 223 1.65
  63  0.069  0.052  0.395- 222 1.64 214 1.65
  64  0.452  0.130  0.421- 239 1.65 220 1.65
  65  0.806  0.214  0.483- 238 1.67 235 1.69
  66  0.973  0.182  0.599- 216 1.63 246 1.65
  67  0.275  0.299  0.449- 262 1.65 272 1.66
  68  0.556  0.775  0.442- 243 1.51 270 1.66
  69  0.393  0.972  0.619- 260 1.65 274 1.66
  70  0.178  0.350  0.405- 262 1.66 237 1.67
  71  0.866  0.684  0.637- 240 1.64 236 1.65
  72  0.866  0.967  0.467- 232 1.60 247 1.65
  73  0.301  0.761  0.458- 230 1.65 244 1.67
  74  0.422  0.261  0.380- 239 1.67 259 1.67
  75  0.811  0.466  0.520- 266 1.63 213 1.64
  76  0.983  0.073  0.521- 256 1.68 216 1.69
  77  0.519  0.460  0.628- 275 1.66 276 2.03
  78  0.035  0.920  0.429- 267 1.64 214 1.65
  79  0.963  0.303  0.351-   6 0.98 215 1.65
  80  0.070  0.336  0.376- 215 1.64 237 1.65
  81  0.208  0.729  0.395- 244 1.66 254 1.67
  82  0.039  0.419  0.499- 269 1.64 242 1.65
  83  0.240  0.286  0.588- 250 1.63 227 1.63
  84  0.397  0.195  0.644-  34 0.97 221 1.64
  85  0.456  0.560  0.584- 252 1.68 275 1.69
  86  0.910  0.749  0.558- 240 1.64 219 1.66
  87  0.869  0.108  0.442- 247 1.64 235 1.65
  88  0.573  0.667  0.376-  43 0.97 243 1.68
  89  0.142  0.159  0.376- 268 1.65 222 1.65
  90  0.350  0.765  0.607- 212 1.62 253 1.64
  91  0.911  0.845  0.483- 232 1.62 219 1.66
  92  0.061  0.537  0.442- 269 1.66 211 1.67
  93  0.708  0.555  0.420-  19 1.00 225 1.67
  94  0.075  0.817  0.483- 267 1.50 249 1.65
  95  0.700  0.828  0.433- 224 1.53 257 1.65
  96  0.730  0.049  0.543- 258 1.64 223 1.64
  97  0.919  0.302  0.632-  14 0.98 246 1.63
  98  0.735  0.853  0.613- 231 1.66 228 1.68
  99  0.625  0.527  0.486- 233 1.58 225 1.68
 100  0.557  0.630  0.467- 243 1.52 233 1.63
 101  0.427  0.246  0.555- 221 1.68 264 1.68
 102  0.978  0.728  0.477- 249 1.65 219 1.65
 103  0.654  0.594  0.634- 271 1.64 217 1.67
 104  0.397  0.746  0.515- 230 1.65 212 1.65
 105  0.603  0.518  0.386-  21 0.99 225 1.65
 106  0.719  0.631  0.557- 255 1.63 271 1.64
 107  0.147  0.364  0.620-  45 0.97 227 1.64
 108  0.066  0.549  0.542- 269 1.63 273 1.64
 109  0.819  0.885  0.537- 232 1.65 231 1.67
 110  0.828  0.355  0.452- 238 1.65 213 1.65
 111  0.528  0.298  0.530- 264 1.61 245 1.63
 112  0.737  0.499  0.595- 271 1.65 266 1.66
 113  0.557  0.172  0.395- 251 1.59 220 1.64
 114  0.806  0.256  0.383-   7 0.97 238 1.67
 115  0.237  0.953  0.508- 241 1.58 226 1.67
 116  0.693  0.776  0.542- 255 1.63 228 1.64
 117  0.924  0.950  0.553- 256 1.65 232 1.65
 118  0.526  0.318  0.399- 251 1.45 259 1.66
 119  0.469  0.990  0.546- 260 1.69 261 1.70
 120  0.838  0.095  0.540- 235 1.66 258 1.66
 121  0.538  0.116  0.486- 234 1.61 220 1.67
 122  0.350  0.187  0.440- 272 1.63 239 1.65
 123  0.012  0.962  0.335-   8 0.97 214 1.65
 124  0.453  0.596  0.677- 252 1.66 276 1.96
 125  0.655  0.925  0.379-   9 0.98 224 1.66
 126  0.076  0.686  0.436- 211 1.65 249 1.66
 127  0.454  0.403  0.554- 275 1.68 264 1.70
 128  0.719  0.700  0.380-  22 0.99 257 1.65
 129  0.451  0.704  0.599- 212 1.63 252 1.63
 130  0.753  0.709  0.476- 255 1.63 257 1.69
 131  0.778  0.121  0.621-   5 0.97 258 1.64
 132  0.993  0.308  0.448- 242 1.66 215 1.68
 133  0.533  0.508  0.531- 275 1.64 233 1.64
 134  0.817  0.499  0.423-  23 0.98 213 1.69
 135  0.236  0.145  0.605-  35 0.98 250 1.62
 136  0.204  0.831  0.471- 226 1.50 244 1.63
 137  0.240  0.559  0.523- 229 1.65 218 1.66
 138  0.061  0.625  0.624-  46 0.97 273 1.64
 139  0.046  0.602  0.354-  24 0.97 211 1.65
 140  0.801  0.979  0.606- 231 1.66 258 1.69
 141  0.538  0.028  0.405-  27 0.99 220 1.66
 142  0.603  0.315  0.605-  15 0.98 245 1.64
 143  0.862  0.004  0.369-  10 0.97 247 1.66
 144  0.095  0.149  0.467- 248 1.62 222 1.65
 145  0.171  0.204  0.531- 248 1.61 250 1.63
 146  0.641  0.704  0.455- 243 1.65 257 1.66
 147  0.437  0.410  0.386-  37 0.98 259 1.66
 148  0.575  0.058  0.571- 261 1.62 234 1.65
 149  0.151  0.593  0.389- 254 1.68 211 1.68
 150  0.268  0.602  0.392- 265 1.65 254 1.67
 151  0.440  0.322  0.470- 264 1.64 259 1.69
 152  0.238  0.159  0.430- 268 1.65 272 1.67
 153  0.073  0.150  0.563- 248 1.64 216 1.64
 154  0.845  0.544  0.600- 236 1.66 266 1.66
 155  0.621  0.280  0.411- 263 1.65 251 1.66
 156  0.603  0.892  0.467- 270 1.29 224 1.67
 157  0.031  0.195  0.389- 215 1.66 222 1.66
 158  0.608  0.196  0.548- 234 1.62 245 1.64
 159  0.133  0.938  0.479- 267 1.65 226 1.66
 160  0.080  0.280  0.512- 242 1.64 248 1.65
 161  0.373  0.104  0.569- 274 1.63 221 1.69
 162  0.067  0.697  0.536- 249 1.63 273 1.63
 163  0.666  0.415  0.430- 225 1.65 263 1.65
 164  0.799  0.729  0.564- 255 1.61 240 1.63
 165  0.704  0.957  0.470- 223 1.65 224 1.66
 166  0.597  0.634  0.554- 233 1.63 217 1.63
 167  0.723  0.294  0.452- 238 1.63 263 1.64
 168  0.978  0.314  0.547- 242 1.64 246 1.67
 169  0.158  0.630  0.571- 229 1.63 273 1.65
 170  0.633  0.327  0.508- 245 1.62 263 1.65
 171  0.819  0.396  0.605-  20 0.97 266 1.65
 172  0.959  0.027  0.417- 247 1.64 214 1.65
 173  0.282  0.195  0.519- 272 1.63 250 1.65
 174  0.249  0.443  0.461- 218 1.66 262 1.71
 175  0.272  0.850  0.569- 241 1.64 253 1.65
 176  0.204  0.686  0.487- 229 1.63 244 1.66
 177  0.147  0.476  0.493- 218 1.63 269 1.65
 178  0.224  0.423  0.557- 218 1.61 227 1.63
 179  0.911  0.453  0.474-  18 0.98 213 1.65
 180  0.870  0.705  0.464-  25 0.99 219 1.65
 181  0.738  0.093  0.445-  11 0.98 223 1.66
 182  0.222  0.930  0.408-  28 1.00 226 1.64
 183  0.252  0.403  0.649-  47 0.97 227 1.64
 184  0.630  0.883  0.593-  16 0.99 228 1.62
 185  0.410  0.789  0.423-  38 0.97 230 1.68
 186  0.918  0.196  0.508-  12 0.97 235 1.65
 187  0.133  0.444  0.332-  42 0.98 237 1.65
 188  0.155  0.304  0.311-  30 0.97 237 1.69
 189  0.373  0.131  0.348-  31 0.98 239 1.66
 190  0.034  0.292  0.634-  17 0.97 246 1.66
 191  0.573  0.257  0.320-  13 0.97 251 1.66
 192  0.245  0.770  0.650-  48 0.97 253 1.64
 193  0.207  0.648  0.310-  39 0.97 254 1.65
 194  0.275  0.392  0.367-  40 0.98 262 1.66
 195  0.365  0.598  0.342-  41 0.97 265 1.67
 196  0.226  0.056  0.358-  32 0.97 268 1.69
 197  0.241  0.196  0.329-  29 0.99 268 1.66
 198  0.501  0.892  0.455-  44 0.99 270 1.60
 199  0.550  0.828  0.534-  33 0.97 270 1.67
 200  0.545  0.647  0.635- 217 1.65 252 1.67
 201  0.479  0.121  0.596- 261 1.65 221 1.66
 202  0.263  0.694  0.568- 253 1.65 229 1.65
 203  0.443  0.846  0.581- 260 1.65 212 1.68
 204  0.765  0.617  0.649- 271 1.65 236 1.66
 205  0.845  0.832  0.623- 240 1.66 231 1.68
 206  0.640  0.740  0.621- 217 1.67 228 1.71
 207  0.008  0.033  0.603- 256 1.69 216 1.69
 208  0.285  0.002  0.594- 274 1.69 241 1.70
 209  0.504  0.971  0.628- 260 1.69 261 1.70
 210  0.433  0.422  0.708- 276 1.73
 211  0.083  0.606  0.406- 139 1.65 126 1.65  92 1.67 149 1.68 269 3.13
 212  0.409  0.765  0.574-  90 1.62 129 1.63 104 1.65 203 1.68 253 3.06
 213  0.842  0.441  0.468-  75 1.64 110 1.65 179 1.65 134 1.69
 214  0.017  0.990  0.394-  63 1.65 172 1.65  78 1.65 123 1.65 267 3.11 222 3.13
 215  0.015  0.284  0.391-  80 1.64  79 1.65 157 1.66 132 1.68 242 3.11 222 3.11
 216  0.009  0.115  0.573-  66 1.63 153 1.64  76 1.69 207 1.69 256 2.39 248 3.05 246 3.07
 217  0.609  0.658  0.611- 166 1.63 200 1.65 103 1.67 206 1.67 271 2.88
 218  0.214  0.476  0.510- 178 1.61 177 1.63 174 1.66 137 1.66 229 3.10 262 3.14
 219  0.915  0.756  0.496- 102 1.65 180 1.65  86 1.66  91 1.66 232 2.99 240 3.03
 220  0.521  0.110  0.426- 113 1.64  64 1.65 141 1.66 121 1.67 251 3.08 234 3.12
 221  0.419  0.169  0.589-  84 1.64 201 1.66 101 1.68 161 1.69 274 3.14 261 3.14
 222  0.083  0.139  0.407-  63 1.64 144 1.65  89 1.65 157 1.66 215 3.11 214 3.13 268 3.14
 223  0.702  0.045  0.487-  96 1.64 165 1.65  62 1.65 181 1.66 234 3.09 224 3.10 258 3.15
 224  0.665  0.898  0.437-  95 1.53 165 1.66 125 1.66 156 1.67 270 2.83 257 3.06 223 3.10
 225  0.650  0.504  0.430- 105 1.65 163 1.65  93 1.67  99 1.68 233 3.07
 226  0.198  0.912  0.464- 136 1.50 182 1.64 159 1.66 115 1.67 244 3.01 241 3.06 267 3.07
 227  0.214  0.366  0.604-  83 1.63 178 1.63 107 1.64 183 1.64
 228  0.673  0.814  0.595- 184 1.62 116 1.64  98 1.68 206 1.71 255 2.90
 229  0.217  0.641  0.538- 176 1.63 169 1.63 202 1.65 137 1.65 244 3.09 218 3.10 273 3.12
 230  0.369  0.735  0.459- 104 1.65  73 1.65  57 1.66 185 1.68
 231  0.797  0.888  0.596- 140 1.66  98 1.66 109 1.67 205 1.68 240 2.86 232 3.00 258 3.15
 232  0.880  0.912  0.512-  72 1.60  91 1.62 109 1.65 117 1.65 219 2.99 231 3.00 256 3.05 247 3.13

 233  0.576  0.574  0.512-  99 1.58 166 1.63 100 1.63 133 1.64 243 3.00 225 3.07 275 3.15
 234  0.590  0.116  0.525-  62 1.60 121 1.61 158 1.62 148 1.65 261 2.84 223 3.09 245 3.11 220 3.12

 235  0.858  0.152  0.495- 186 1.65  87 1.65 120 1.66  65 1.69 247 3.07 238 3.15
 236  0.835  0.604  0.646-  59 1.64  71 1.65 154 1.66 204 1.66 271 2.93 240 3.00 266 3.01
 237  0.134  0.360  0.357- 187 1.65  80 1.65  70 1.67 188 1.69 262 3.11
 238  0.791  0.280  0.442- 167 1.63 110 1.65 114 1.67  65 1.67 235 3.15
 239  0.399  0.177  0.396-  64 1.65 122 1.65 189 1.66  74 1.67 259 3.07
 240  0.856  0.750  0.597- 164 1.63  86 1.64  71 1.64 205 1.66 231 2.86 236 3.00 219 3.03
 241  0.283  0.934  0.550- 115 1.58 175 1.64  60 1.68 208 1.70 274 2.38 226 3.06
 242  0.023  0.330  0.502- 160 1.64 168 1.64  82 1.65 132 1.66 246 3.11 215 3.11 248 3.13
 243  0.575  0.695  0.436-  68 1.51 100 1.52 146 1.65  88 1.68 233 3.00 270 3.06 257 3.10
 244  0.230  0.753  0.452- 136 1.63 176 1.66  81 1.66  73 1.67 254 2.97 226 3.01 229 3.09
 245  0.593  0.284  0.548- 170 1.62 111 1.63 158 1.64 142 1.64 234 3.11 263 3.15
 246  0.975  0.272  0.603-  97 1.63  66 1.65 190 1.66 168 1.67 216 3.07 242 3.11
 247  0.889  0.025  0.424-  87 1.64 172 1.64  72 1.65 143 1.66 235 3.07 232 3.13
 248  0.105  0.195  0.518- 145 1.61 144 1.62 153 1.64 160 1.65 216 3.05 242 3.13
 249  0.048  0.733  0.483- 162 1.63 102 1.65  94 1.65 126 1.66 267 3.05 273 3.15
 250  0.232  0.206  0.561- 135 1.62  83 1.63 145 1.63 173 1.65 272 3.03
 251  0.561  0.258  0.381- 118 1.45 113 1.59 155 1.66 191 1.66 259 2.87 220 3.08
 252  0.476  0.628  0.623- 129 1.63 124 1.66 200 1.67  85 1.68 275 3.01 276 3.02
 253  0.281  0.770  0.598- 192 1.64  90 1.64 202 1.65 175 1.65 212 3.06
 254  0.209  0.643  0.372- 193 1.65 150 1.67  81 1.67 149 1.68 244 2.97
 255  0.740  0.711  0.536- 164 1.61 106 1.63 130 1.63 116 1.63 228 2.90 257 2.91 271 3.07
 256  0.987  0.991  0.550-  61 1.63 117 1.65  76 1.68 207 1.69 216 2.39 232 3.05
 257  0.703  0.737  0.434-  95 1.65 128 1.65 146 1.66 130 1.69 255 2.91 224 3.06 243 3.10
 258  0.788  0.059  0.577-  96 1.64 131 1.64 120 1.66 140 1.69 231 3.15 223 3.15
 259  0.456  0.328  0.409- 147 1.66 118 1.66  74 1.67 151 1.69 251 2.87 239 3.07
 260  0.450  0.935  0.594-  69 1.65 203 1.65 119 1.69 209 1.69 261 2.36 274 2.74
 261  0.509  0.040  0.586- 148 1.62 201 1.65 119 1.70 209 1.70 260 2.36 234 2.84 221 3.14
 262  0.244  0.370  0.421-  67 1.65  70 1.66 194 1.66 174 1.71 237 3.11 218 3.14
 263  0.659  0.330  0.450- 167 1.64 155 1.65 163 1.65 170 1.65 245 3.15
 264  0.461  0.318  0.529- 111 1.61 151 1.64 101 1.68 127 1.70
 265  0.337  0.590  0.399- 150 1.65 195 1.67  58 1.67  57 1.68
 266  0.803  0.477  0.580-  75 1.63 171 1.65 154 1.66 112 1.66 271 2.91 236 3.01
 267  0.069  0.899  0.481-  94 1.50  78 1.64 159 1.65  61 1.66 249 3.05 226 3.07 214 3.11
 268  0.212  0.144  0.374-  89 1.65 152 1.65 197 1.66 196 1.69 272 3.12 222 3.14
 269  0.078  0.494  0.495- 108 1.63  82 1.64 177 1.65  92 1.66 273 3.10 211 3.13
 270  0.558  0.852  0.475- 156 1.29 198 1.60  68 1.66 199 1.67 224 2.83 243 3.06
 271  0.718  0.585  0.610- 106 1.64 103 1.64 204 1.65 112 1.65 217 2.88 266 2.91 236 2.93 255 3.07

 272  0.287  0.210  0.459- 173 1.63 122 1.63  67 1.66 152 1.67 250 3.03 268 3.12
 273  0.088  0.626  0.568- 162 1.63 138 1.64 108 1.64 169 1.65 269 3.10 229 3.12 249 3.15
 274  0.354  0.018  0.578- 161 1.63  69 1.66 208 1.69  60 1.70 241 2.38 260 2.74 221 3.14
 275  0.489  0.479  0.574- 133 1.64  77 1.66 127 1.68  85 1.69 252 3.01 233 3.15 276 3.15
 276  0.477  0.494  0.690- 210 1.73 124 1.96  77 2.03   2 2.05 252 3.02 275 3.15

  LATTYP: Found a simple orthorhombic cell.
 ALAT       =    18.1212369514
 B/A-ratio  =     1.2919258579
 C/A-ratio  =     1.4835282260
  
  Lattice vectors:
  
 A1 = (   0.0000000000, -18.1212369514,   0.0000000000)
 A2 = ( -23.4112945954,   0.0000000000,   0.0000000000)
 A3 = (   0.0000000000,   0.0000000000, -26.8833665073)


Analysis of symmetry for initial positions (statically):
=====================================================================
 Subroutine PRICEL returns:
 Original cell was already a primitive cell.
 

 Routine SETGRP: Setting up the symmetry group for a 
 simple orthorhombic supercell.


 Subroutine GETGRP returns: Found  1 space group operations
 (whereof  1 operations were pure point group operations)
 out of a pool of  8 trial point group operations.


The static configuration has the point symmetry C_1 .


Analysis of symmetry for dynamics (positions and initial velocities):
=====================================================================
 Subroutine PRICEL returns:
 Original cell was already a primitive cell.
 

 Routine SETGRP: Setting up the symmetry group for a 
 simple orthorhombic supercell.


 Subroutine GETGRP returns: Found  1 space group operations
 (whereof  1 operations were pure point group operations)
 out of a pool of  8 trial point group operations.


The dynamic configuration has the point symmetry C_1 .


Analysis of constrained symmetry for selective dynamics:
=====================================================================
 Subroutine PRICEL returns:
 Original cell was already a primitive cell.
 

 Routine SETGRP: Setting up the symmetry group for a 
 simple orthorhombic supercell.


 Subroutine GETGRP returns: Found  1 space group operations
 (whereof  1 operations were pure point group operations)
 out of a pool of  8 trial point group operations.


The constrained configuration has the point symmetry C_1 .


 Subroutine INISYM returns: Found  1 space group operations
 (whereof  1 operations are pure point group operations),
 and found     1 'primitive' translations



 KPOINTS: KPOINTS created by Atomic Simulation Env

Automatic generation of k-mesh.
Space group operators:
 irot       det(A)        alpha          n_x          n_y          n_z        tau_x        tau_y        tau_z
    1     1.000000     0.000001     1.000000     0.000000     0.000000     0.000000     0.000000     0.000000
 
 Subroutine IBZKPT returns following result:
 ===========================================
 
 Found      5 irreducible k-points:
 
 Following reciprocal coordinates:
            Coordinates               Weight
  0.000000  0.000000  0.000000      1.000000
  0.333333  0.000000  0.000000      2.000000
  0.000000  0.333333  0.000000      2.000000
  0.333333  0.333333  0.000000      2.000000
 -0.333333  0.333333  0.000000      2.000000
 
 Following cartesian coordinates:
            Coordinates               Weight
  0.000000  0.000000  0.000000      1.000000
  0.014238  0.000000  0.000000      2.000000
  0.000000  0.018395  0.000000      2.000000
  0.014238  0.018395  0.000000      2.000000
 -0.014238  0.018395  0.000000      2.000000
 


--------------------------------------------------------------------------------------------------------




 Dimension of arrays:
   k-points           NKPTS =      5   k-points in BZ     NKDIM =      5   number of bands    NBANDS=    768
   number of dos      NEDOS =    301   number of ions     NIONS =    276
   non local maximal  LDIM  =      6   non local SUM 2l+1 LMDIM =     18
   total plane-waves  NPLWV = ******
   max r-space proj   IRMAX =   2748   max aug-charges    IRDMAX=   9808
   dimension x,y,z NGX =   128 NGY =  100 NGZ =  150
   dimension x,y,z NGXF=   256 NGYF=  200 NGZF=  300
   support grid    NGXF=   256 NGYF=  200 NGZF=  300
   ions per type =               4  52 154  65   1
   NGX,Y,Z   is equivalent  to a cutoff of   9.09,  9.17,  9.28 a.u.
   NGXF,Y,Z  is equivalent  to a cutoff of  18.18, 18.35, 18.55 a.u.

 SYSTEM =  unknown system                          
 POSCAR =   C  H  O Si  W                          

 Startparameter for this run:
   NWRITE =      2    write-flag & timer
   PREC   = normal    normal or accurate (medium, high low for compatibility)
   ISTART =      0    job   : 0-new  1-cont  2-samecut
   ICHARG =      2    charge: 1-file 2-atom 10-const
   ISPIN  =      1    spin polarized calculation?
   LNONCOLLINEAR =      F non collinear calculations
   LSORBIT =      F    spin-orbit coupling
   INIWAV =      1    electr: 0-lowe 1-rand  2-diag
   LASPH  =      T    aspherical Exc in radial PAW
   METAGGA=      F    non-selfconsistent MetaGGA calc.

 Electronic Relaxation 1
   ENCUT  =  500.0 eV  36.75 Ry    6.06 a.u.  42.68 33.04 49.01*2*pi/ulx,y,z
   ENINI  =  500.0     initial cutoff
   ENAUG  =  644.9 eV  augmentation charge cutoff
   NELM   =     60;   NELMIN=  2; NELMDL=  0     # of ELM steps 
   EDIFF  = 0.1E-06   stopping-criterion for ELM
   LREAL  =      T    real-space projection
   NLSPLINE    = F    spline interpolate recip. space projectors
   LCOMPAT=      F    compatible to vasp.4.4
   GGA_COMPAT  = T    GGA compatible to vasp.4.4-vasp.4.6
   LMAXPAW     = -100 max onsite density
   LMAXMIX     =    2 max onsite mixed and CHGCAR
   VOSKOWN=      0    Vosko Wilk Nusair interpolation
   ROPT   =   -0.00050  -0.00050  -0.00050  -0.00050
   ROPT   =   -0.00050
 Ionic relaxation
   EDIFFG = -.5E-01   stopping-criterion for IOM
   NSW    =    200    number of steps for IOM
   NBLOCK =      1;   KBLOCK =    200    inner block; outer block 
   IBRION =      3    ionic relax: 0-MD 1-quasi-New 2-CG
   NFREE  =      0    steps in history (QN), initial steepest desc. (CG)
   ISIF   =      0    stress and relaxation
   IWAVPR =     11    prediction:  0-non 1-charg 2-wave 3-comb
   ISYM   =      2    0-nonsym 1-usesym 2-fastsym
   LCORR  =      T    Harris-Foulkes like correction to forces

   POTIM  = 0.0000    time-step for ionic-motion
   TEIN   =    0.0    initial temperature
   TEBEG  =    0.0;   TEEND  =   0.0 temperature during run
   SMASS  =  -3.00    Nose mass-parameter (am)
   estimated Nose-frequenzy (Omega)   =  0.10E-29 period in steps =  0.00 mass=  -0.125E-25a.u.
   SCALEE = 1.0000    scale energy and forces
   NPACO  =    256;   APACO  = 16.0  distance and # of slots for P.C.
   PSTRESS=    0.0 pullay stress

  Mass of Ions in am
   POMASS =  12.01  1.00 16.00 28.09183.85
  Ionic Valenz
   ZVAL   =   4.00  1.00  6.00  4.00  6.00
  Atomic Wigner-Seitz radii
   RWIGS  =  -1.00 -1.00 -1.00 -1.00 -1.00
  virtual crystal weights 
   VCA    =   1.00  1.00  1.00  1.00  1.00
   NELECT =    1258.0000    total number of electrons
   NUPDOWN=      -1.0000    fix difference up-down

 DOS related values:
   EMIN   =  10.00;   EMAX   =-10.00  energy-range for DOS
   EFERMI =   0.00
   ISMEAR =     0;   SIGMA  =   0.20  broadening in eV -4-tet -1-fermi 0-gaus

 Electronic relaxation 2 (details)
   IALGO  =     68    algorithm
   LDIAG  =      T    sub-space diagonalisation (order eigenvalues)
   LSUBROT=      F    optimize rotation matrix (better conditioning)
   TURBO    =      0    0=normal 1=particle mesh
   IRESTART =      0    0=no restart 2=restart with 2 vectors
   NREBOOT  =      0    no. of reboots
   NMIN     =      0    reboot dimension
   EREF     =   0.00    reference energy to select bands
   IMIX   =      4    mixing-type and parameters
     AMIX     =   0.40;   BMIX     =  1.00
     AMIX_MAG =   1.60;   BMIX_MAG =  1.00
     AMIN     =   0.10
     WC   =   100.;   INIMIX=   1;  MIXPRE=   1;  MAXMIX= -45

 Intra band minimization:
   WEIMIN = 0.0010     energy-eigenvalue tresh-hold
   EBREAK =  0.33E-10  absolut break condition
   DEPER  =   0.30     relativ break condition  

   TIME   =   0.40     timestep for ELM

  volume/ion in A,a.u.               =      41.32       278.86
  Fermi-wavevector in a.u.,A,eV,Ry     =   0.785120  1.483662  8.386815  0.616413
  Thomas-Fermi vector in A             =   1.889391

 Write flags
   LWAVE        =      F    write WAVECAR
   LDOWNSAMPLE  =      F    k-point downsampling of WAVECAR
   LCHARG       =      F    write CHGCAR
   LVTOT        =      F    write LOCPOT, total local potential
   LVHAR        =      F    write LOCPOT, Hartree potential only
   LELF         =      F    write electronic localiz. function (ELF)
   LORBIT       =      0    0 simple, 1 ext, 2 COOP (PROOUT), +10 PAW based schemes


 Dipole corrections
   LMONO  =      F    monopole corrections only (constant potential shift)
   LDIPOL =      T    correct potential (dipole corrections)
   IDIPOL =      3    1-x, 2-y, 3-z, 4-all directions 
   EPSILON=  1.0000000 bulk dielectric constant

 Exchange correlation treatment:
   GGA     =    RP    GGA type
   LEXCH   =     9    internal setting for exchange type
   VOSKOWN=      0    Vosko Wilk Nusair interpolation
   LHFCALC =     F    Hartree Fock is set to
   LHFONE  =     F    Hartree Fock one center treatment
   AEXX    =    0.0000 exact exchange contribution

 Linear response parameters
   LEPSILON=     F    determine dielectric tensor
   LRPA    =     F    only Hartree local field effects (RPA)
   LNABLA  =     F    use nabla operator in PAW spheres
   LVEL    =     F    velocity operator in full k-point grid
   LINTERFAST=   F  fast interpolation
   KINTER  =     0    interpolate to denser k-point grid
   CSHIFT  =0.1000    complex shift for real part using Kramers Kronig
   OMEGAMAX=  -1.0    maximum frequency
   DEG_THRESHOLD= 0.2000000E-02 threshold for treating states as degnerate
   RTIME   =   -0.100 relaxation time in fs
  (WPLASMAI=    0.000 imaginary part of plasma frequency in eV, 0.658/RTIME)
   DFIELD  = 0.0000000 0.0000000 0.0000000 field for delta impulse in time

 Orbital magnetization related:
   ORBITALMAG=     F  switch on orbital magnetization
   LCHIMAG   =     F  perturbation theory with respect to B field
   DQ        =  0.001000  dq finite difference perturbation B field
   LLRAUG    =     F  two centre corrections for induced B field



--------------------------------------------------------------------------------------------------------


 quickmin algorithm: (dynamic with friction)
   using selective dynamics as specified on POSCAR
 charge density and potential will be updated during run
 non-spin polarized calculation
 RMM-DIIS sequential band-by-band and
  variant of blocked Davidson during initial phase
 perform sub-space diagonalisation
    before iterative eigenvector-optimisation
 modified Broyden-mixing scheme, WC =      100.0
 initial mixing is a Kerker type mixing with AMIX =  0.4000 and BMIX =      1.0000
 Hartree-type preconditioning will be used
 using additional bands          139
 real space projection scheme for non local part
 use partial core corrections
 calculate Harris-corrections to forces   (improved forces if not selfconsistent)
 use gradient corrections 
 use of overlap-Matrix (Vanderbilt PP)
 Gauss-broadening in eV      SIGMA  =   0.20


--------------------------------------------------------------------------------------------------------


  energy-cutoff  :      500.00
  volume of cell :    11405.04
      direct lattice vectors                 reciprocal lattice vectors
    23.411294595  0.000000000  0.000000000     0.042714426  0.000000000  0.000000000
     0.000000000 18.121236951  0.000000000     0.000000000  0.055183871  0.000000000
     0.000000000  0.000000000 26.883366507     0.000000000  0.000000000  0.037197722

  length of vectors
    23.411294595 18.121236951 26.883366507     0.042714426  0.055183871  0.037197722



 k-points in units of 2pi/SCALE and weight: KPOINTS created by Atomic Simulation Env
   0.00000000  0.00000000  0.00000000       0.111
   0.01423814  0.00000000  0.00000000       0.222
   0.00000000  0.01839462  0.00000000       0.222
   0.01423814  0.01839462  0.00000000       0.222
  -0.01423814  0.01839462  0.00000000       0.222

 k-points in reciprocal lattice and weights: KPOINTS created by Atomic Simulation Env
   0.00000000  0.00000000  0.00000000       0.111
   0.33333333  0.00000000  0.00000000       0.222
   0.00000000  0.33333333  0.00000000       0.222
   0.33333333  0.33333333  0.00000000       0.222
  -0.33333333  0.33333333  0.00000000       0.222

 position of ions in fractional coordinates (direct lattice) 
   0.56418317  0.43908137  0.77564309
   0.54195810  0.49430201  0.74123270
   0.54632388  0.35948857  0.77625861
   0.56149191  0.57388154  0.75342830
   0.76078242  0.10285211  0.65116726
   0.92642768  0.27866896  0.35633493
   0.79333970  0.20727890  0.37345652
   0.97453911  0.94360860  0.32530279
   0.62573266  0.96347285  0.37523120
   0.82053840  0.99500666  0.36899263
   0.74999307  0.14117876  0.45803819
   0.91543673  0.24946351  0.50910320
   0.58349286  0.30426355  0.30592717
   0.89124138  0.33453865  0.61596757
   0.58402738  0.36147964  0.61315558
   0.59342237  0.87111286  0.57805060
   0.03416118  0.33822341  0.65165059
   0.93527051  0.41951423  0.45410146
   0.74613838  0.53031199  0.42248819
   0.79776923  0.38251626  0.63476302
   0.59110202  0.56868283  0.37803474
   0.71843379  0.64593279  0.38346059
   0.84115291  0.54242660  0.41959617
   0.00476455  0.60379815  0.35777830
   0.82835870  0.71235667  0.46794226
   0.87790378  0.59882659  0.72073989
   0.51999031  0.98556476  0.42170307
   0.22309457  0.98015484  0.39320502
   0.21637369  0.23785146  0.31923033
   0.15750105  0.32980623  0.27898292
   0.34154688  0.15558571  0.33077276
   0.22271586  0.04575893  0.32273843
   0.51160034  0.82432045  0.54673645
   0.38501762  0.24566409  0.64793288
   0.24416140  0.09291940  0.59854875
   0.31538097  0.48713646  0.44243467
   0.40895618  0.43873486  0.40569060
   0.39849950  0.79311361  0.38878680
   0.24420236  0.65543008  0.29432688
   0.31174138  0.41847571  0.36925764
   0.40547429  0.58427965  0.33881989
   0.13935762  0.48797365  0.35192946
   0.59326935  0.69798713  0.35239799
   0.46900683  0.86142747  0.44382838
   0.12208672  0.32265020  0.61158324
   0.07350488  0.66461513  0.64589977
   0.24494671  0.38297784  0.68210621
   0.24487182  0.81521323  0.66889578
   0.57825718  0.46098553  0.72031486
   0.59665521  0.45814797  0.80195818
   0.54954714  0.33775158  0.81441842
   0.50217869  0.35278345  0.76324093
   0.57404227  0.32426445  0.75283473
   0.53312850  0.59573690  0.78256965
   0.60556986  0.57370186  0.76795193
   0.55965759  0.61136668  0.72152261
   0.36894173  0.64835510  0.43900002
   0.34681565  0.50403387  0.42038813
   0.86053011  0.56602162  0.69664673
   0.34887434  0.95753793  0.53051006
   0.03341008  0.93256399  0.52849764
   0.63635548  0.07886855  0.48937667
   0.06864615  0.05226542  0.39511073
   0.45189954  0.12956232  0.42059728
   0.80588415  0.21365018  0.48316661
   0.97311641  0.18152606  0.59877466
   0.27476529  0.29917287  0.44851223
   0.55635417  0.77509129  0.44175101
   0.39267629  0.97209780  0.61936881
   0.17751724  0.34996845  0.40527312
   0.86645623  0.68405854  0.63736173
   0.86569601  0.96717693  0.46703846
   0.30104714  0.76093683  0.45792526
   0.42161095  0.26125222  0.37959630
   0.81084649  0.46553087  0.52000941
   0.98346732  0.07276233  0.52125004
   0.51946729  0.46013921  0.62821634
   0.03453641  0.91994776  0.42940526
   0.96303654  0.30319531  0.35125762
   0.06962669  0.33610577  0.37637178
   0.20829566  0.72864429  0.39536010
   0.03890126  0.41910192  0.49910875
   0.23950263  0.28572927  0.58786498
   0.39703672  0.19479709  0.64405586
   0.45563179  0.55994526  0.58399567
   0.90972646  0.74917821  0.55751732
   0.86912727  0.10804334  0.44227833
   0.57257679  0.66733185  0.37613173
   0.14242656  0.15912550  0.37597224
   0.35044833  0.76541794  0.60661577
   0.91099605  0.84504757  0.48317962
   0.06133801  0.53687171  0.44225348
   0.70833903  0.55516655  0.41995768
   0.07548726  0.81680680  0.48299416
   0.70046477  0.82755572  0.43263529
   0.73020095  0.04908751  0.54299374
   0.91864339  0.30172951  0.63202963
   0.73492808  0.85295351  0.61300928
   0.62512195  0.52739400  0.48637871
   0.55657330  0.62970304  0.46724942
   0.42689429  0.24621622  0.55528523
   0.97829009  0.72824363  0.47679564
   0.65384463  0.59437112  0.63352968
   0.39670431  0.74644157  0.51515023
   0.60269007  0.51766545  0.38567099
   0.71939588  0.63127693  0.55705039
   0.14679931  0.36394585  0.61991007
   0.06631703  0.54856292  0.54195402
   0.81886640  0.88459752  0.53669974
   0.82821553  0.35538514  0.45190334
   0.52800605  0.29754041  0.52991689
   0.73656014  0.49934773  0.59547515
   0.55743394  0.17243111  0.39490854
   0.80596408  0.25641257  0.38329286
   0.23744622  0.95325075  0.50791956
   0.69288180  0.77638785  0.54150429
   0.92381343  0.94974998  0.55297152
   0.52573722  0.31778112  0.39855594
   0.46877101  0.98978690  0.54563003
   0.83770916  0.09489198  0.53984447
   0.53790325  0.11641749  0.48623709
   0.35019344  0.18660873  0.43963639
   0.01176032  0.96241390  0.33524376
   0.45270939  0.59584923  0.67685842
   0.65496522  0.92539750  0.37922825
   0.07629334  0.68602626  0.43588102
   0.45445913  0.40320579  0.55414264
   0.71921944  0.70042085  0.37958300
   0.45075551  0.70372590  0.59915028
   0.75255106  0.70932458  0.47629548
   0.77846711  0.12083438  0.62090152
   0.99327462  0.30801347  0.44840298
   0.53321988  0.50800772  0.53051771
   0.81677759  0.49906173  0.42344221
   0.23568893  0.14475174  0.60529460
   0.20353331  0.83070132  0.47053363
   0.24007573  0.55860610  0.52285108
   0.06139480  0.62537808  0.62381112
   0.04607407  0.60234669  0.35417863
   0.80070698  0.97870562  0.60584115
   0.53799091  0.02769749  0.40450275
   0.60310411  0.31530434  0.60473453
   0.86154611  0.00408085  0.36920633
   0.09491131  0.14902284  0.46708233
   0.17144301  0.20399900  0.53090587
   0.64098865  0.70443872  0.45481558
   0.43678778  0.40976848  0.38641325
   0.57477197  0.05825124  0.57091350
   0.15143775  0.59340802  0.38895836
   0.26773979  0.60233753  0.39230630
   0.44025846  0.32219818  0.47032443
   0.23800967  0.15851113  0.42990119
   0.07275668  0.15009201  0.56252707
   0.84468930  0.54423139  0.59963883
   0.62117943  0.27993988  0.41090545
   0.60266699  0.89152667  0.46722346
   0.03138539  0.19528983  0.38899188
   0.60778472  0.19562645  0.54791374
   0.13279973  0.93835464  0.47948708
   0.08022510  0.28031779  0.51161021
   0.37293639  0.10386972  0.56864153
   0.06661742  0.69696982  0.53573717
   0.66648838  0.41538488  0.43001156
   0.79934931  0.72946762  0.56417285
   0.70383856  0.95720843  0.47018456
   0.59661474  0.63374225  0.55358560
   0.72284030  0.29368465  0.45166811
   0.97753514  0.31424530  0.54726304
   0.15842024  0.62992150  0.57055846
   0.63333384  0.32678308  0.50780070
   0.81935721  0.39643901  0.60542348
   0.95857820  0.02724304  0.41695300
   0.28206690  0.19493760  0.51864127
   0.24925755  0.44303289  0.46105570
   0.27189212  0.84965788  0.56889181
   0.20366815  0.68557317  0.48688872
   0.14712345  0.47606988  0.49254493
   0.22441436  0.42266104  0.55680390
   0.91141698  0.45274460  0.47371881
   0.86978818  0.70456011  0.46415352
   0.73812021  0.09283462  0.44522965
   0.22218344  0.92978119  0.40794682
   0.25203796  0.40257629  0.64915342
   0.63048936  0.88336026  0.59343996
   0.41022327  0.78906239  0.42343739
   0.91777135  0.19603829  0.50824515
   0.13254706  0.44353611  0.33227266
   0.15514768  0.30352326  0.31056042
   0.37300515  0.13090704  0.34795342
   0.03439254  0.29183835  0.63356639
   0.57268926  0.25686819  0.32009968
   0.24470148  0.76993571  0.64966209
   0.20737430  0.64840505  0.31036906
   0.27537441  0.39219130  0.36737583
   0.36535081  0.59758663  0.34222079
   0.22638085  0.05618082  0.35811888
   0.24120334  0.19607823  0.32934297
   0.50127293  0.89230162  0.45484168
   0.55049781  0.82776858  0.53436178
   0.54458622  0.64706561  0.63549842
   0.47881810  0.12111091  0.59607556
   0.26275809  0.69398710  0.56848579
   0.44298122  0.84647079  0.58121330
   0.76532216  0.61694693  0.64948198
   0.84468783  0.83164823  0.62304373
   0.63962846  0.73951615  0.62093522
   0.00811458  0.03338250  0.60298962
   0.28487417  0.00155711  0.59374619
   0.50430289  0.97063038  0.62787934
   0.43347305  0.42182830  0.70769469
   0.08322528  0.60642030  0.40641308
   0.40900025  0.76531385  0.57437738
   0.84176382  0.44145312  0.46783897
   0.01708949  0.99048204  0.39361135
   0.01470021  0.28419027  0.39108141
   0.00921360  0.11502097  0.57250166
   0.60888081  0.65754710  0.61112763
   0.21398458  0.47580582  0.50974015
   0.91506213  0.75556094  0.49625454
   0.52057854  0.11045563  0.42598659
   0.41904576  0.16884988  0.58892124
   0.08345253  0.13917208  0.40698087
   0.70189793  0.04484625  0.48732303
   0.66505935  0.89803746  0.43747644
   0.65009874  0.50402706  0.43015089
   0.19846065  0.91248223  0.46399069
   0.21440292  0.36647076  0.60358228
   0.67348636  0.81355876  0.59464540
   0.21678924  0.64144770  0.53845021
   0.36878912  0.73512773  0.45920930
   0.79734952  0.88846537  0.59570748
   0.87976905  0.91226349  0.51199478
   0.57610872  0.57433911  0.51185587
   0.58996758  0.11577946  0.52519817
   0.85812234  0.15211323  0.49517595
   0.83527265  0.60363114  0.64578422
   0.13373852  0.36031890  0.35687228
   0.79065529  0.27993925  0.44187265
   0.39917610  0.17749484  0.39600320
   0.85596594  0.75006095  0.59655929
   0.28292435  0.93433023  0.54961788
   0.02307473  0.33044751  0.50224551
   0.57455938  0.69549008  0.43556436
   0.23024095  0.75260050  0.45196954
   0.59344626  0.28422386  0.54804112
   0.97509017  0.27232682  0.60264900
   0.88890636  0.02540900  0.42420019
   0.10472795  0.19541556  0.51776725
   0.04814566  0.73303709  0.48263019
   0.23199922  0.20559990  0.56108553
   0.56140781  0.25778527  0.38122611
   0.47621760  0.62760049  0.62274701
   0.28119634  0.77017815  0.59767424
   0.20850083  0.64339984  0.37179454
   0.74036962  0.71081048  0.53583675
   0.98651783  0.99060887  0.55035016
   0.70310456  0.73681815  0.43426040
   0.78789466  0.05942988  0.57678185
   0.45631390  0.32845159  0.40928789
   0.45020732  0.93533181  0.59389883
   0.50912484  0.04024907  0.58560381
   0.24424715  0.37040632  0.42094710
   0.65852534  0.33000211  0.45034791
   0.46090196  0.31778558  0.52873696
   0.33729937  0.58994254  0.39908301
   0.80289559  0.47655795  0.57964829
   0.06920979  0.89885916  0.48050551
   0.21190758  0.14445432  0.37359659
   0.07823286  0.49398500  0.49468762
   0.55757019  0.85234010  0.47473025
   0.71806316  0.58487478  0.60957787
   0.28664212  0.21010174  0.45911077
   0.08823917  0.62550154  0.56764102
   0.35382589  0.01836572  0.57827103
   0.48918969  0.47902041  0.57376650
   0.47687857  0.49420946  0.69002275

 position of ions in cartesian coordinates  (Angst):
  13.20825831  7.95669748 20.85189744
  12.68794080  8.95736388 19.92683045
  12.79014934  6.51437756 20.86844469
  13.14525262 10.39944345 20.25468922
  17.81090129  1.86380746 17.50556821
  21.68887124  5.04982631  9.57948250
  18.57310935  3.75615001 10.03976840
  22.81522226 17.09935504  8.74523415
  14.64921175 17.45931981 10.08747787
  19.20986618 18.03075152  9.91976410
  17.55830880  2.55833369 12.31360861
  21.43155905  4.52058743 13.68640783
  13.66032332  5.51363182  8.22435231
  20.86511453  6.06225420 16.55928194
  13.67283708  6.55045815 16.48368616
  13.89278589 15.78564254 15.53994625
   0.79975737  6.12902659 17.51856159
  21.89589338  7.60211669 12.20777585
  17.46806539  9.60990927 11.35790489
  18.67681048  6.93166774 17.06456681
  13.83846347 10.30523625 10.16284657
  16.81946503 11.70510107 10.30871170
  19.69247867  9.82944088 11.28015755
   0.11154425 10.94156933  9.61828518
  19.39294954 12.90878407 12.57986315
  20.55286401 10.85147857 19.37591466
  12.17364643 17.85965258 11.33679820
   5.22293275 17.76161802 10.57067472
   5.06558822  4.31016263  8.58198589
   3.68730349  5.97649684  7.50000000
   7.99605455  2.81940544  8.89228530
   5.21406665  0.82920834  8.67629559
  11.97722632 14.93770614 14.69811645
   9.01376104  4.45173718 17.41861703
   5.71613443  1.68381447 16.09100541
   7.38347683  8.82751530 11.89413327
   9.57419369  7.95041833 10.90632902
   9.32938927 14.37219961 10.45189795
   5.71709332 11.87720376  7.91249741
   7.29826932  7.58329756  9.92688859
   9.49267817 10.58787005  9.10861924
   3.26254231  8.84268608  9.46104865
  13.88920341 12.64839014  9.47364424
  10.98005707 15.61013129 11.93160111
   2.85820824  5.84682071 16.44141648
   1.72084437 12.04364832 17.36396029
   5.73451960  6.94003221 18.33731133
   5.73276635 14.77267202 17.98217041
  13.53774915  8.35362803 19.36448838
  13.96847081  8.30220794 21.55933558
  12.86560989  6.12047638 21.89430889
  11.75665336  6.39287253 20.51848553
  13.43907268  5.87607300 20.23873184
  12.48122846 10.79548961 21.03810678
  14.17717432 10.39618736 20.64513329
  13.10230879 11.07872038 19.39695668
   8.63740362 11.74899635 11.80179838
   8.11940335  9.13371715 11.30144811
  20.14612383 10.25701181 18.72820934
   8.16759993 17.35177178 14.26189632
   0.78217331 16.89921309 14.20779588
  14.89790566  1.42919560 13.15609244
   1.60709516  0.94711409 10.62190669
  10.57955332  2.34782959 11.30707087
  18.86679123  3.87160553 12.98914499
  22.78191498  3.28947679 16.09707861
   6.43261122  5.42138249 12.05751853
  13.02497128 14.04561295 11.87575437
   9.19306024 17.61561462 16.65071866
   4.15590840  6.34186120 10.89510594
  20.28486199 12.39598682 17.13442896
  20.26706433 17.52644236 12.55556607
   7.04790320 13.78911669 12.31057251
   9.87045805  4.73421333 10.20482654
  18.98296599  8.43599522 13.97960366
  23.02424315  1.31854336 14.01295591
  12.16140170  8.33829170 16.88857016
   0.80854198 16.67059137 11.54385891
  22.54593219  5.49427402  9.44298747
   1.63005096  6.09065222 10.11814055
   4.87647100 13.20393591 10.62861051
   0.91072893  7.59464512 13.41772355
   5.60706669  5.17776782 15.80378964
   9.29514364  3.52996429 17.31438974
  10.66693010 10.14690072 15.69976952
  21.29787418 13.57603584 14.98794254
  20.34739459  1.95787901 11.88993046
  13.40476402 12.09287863 10.11168720
   3.33439013  2.88355087 10.10739962
   8.20444920 13.87031979 16.30787404
  21.32759690 15.31330728 12.98949491
   1.43600223  9.72877939 11.88926245
  16.58313365 10.06030463 11.28987623
   1.76725442 14.80154966 12.98450890
  16.39878711 14.99633320 11.63069310
  17.09494967  0.88952639 14.59749970
  21.50663115  5.46771186 16.99108428
  17.20561788 15.45657264 16.47975309
  14.63491423  9.55703168 13.07549710
  13.03010146 11.41099800 12.56123752
   9.99414806  4.46174254 14.92793633
  22.90303759 13.19667544 12.81787194
  15.30734924 10.77073982 17.03141050
   9.28736151 13.52644450 13.84897238
  14.10975474  9.38073831 10.36813464
  16.84198899 11.43951880 14.97538981
   3.43676193  6.59514895 16.66526949
   1.55256750  9.94063871 14.56954843
  19.17072257 16.03000135 14.42829577
  19.38959778  6.44001838 12.14868300
  12.36130508  5.39180020 14.24594987
  17.24382631  9.04879851 16.00837673
  13.05025010  3.12466491 10.61647095
  18.86866258  4.64651295 10.30420244
   5.55892333 17.27408272 13.65458756
  16.22125997 14.06910824 14.55745825
  21.62766830 17.21064438 14.86573604
  12.30818899  5.75858697 10.71452528
  10.97453613 17.93616294 14.66837209
  19.61185588  1.71956004 14.51283683
  12.59301152  2.10962891 13.07168996
   8.19848185  3.38158106 11.81890631
   0.27532438 17.44013033  9.01248080
  10.59851299 10.79752512 18.19623307
  15.33358375 16.76934745 10.19493214
   1.78612593 12.43164437 11.71794928
  10.63947661  7.30658771 14.89721977
  16.83785811 12.69249221 10.20446890
  10.55277003 12.75238376 16.10717669
  17.61819454 12.85383871 12.80442605
  18.22492289  2.18966838 16.69192321
  23.25384464  5.58158514 12.05458163
  12.48336758  9.20572832 14.26210193
  19.12182067  9.04361594 11.38355200
   5.51778292  2.62308063 16.27235657
   4.76497818 15.05333538 12.64952801
   5.62048362 10.12263356 14.05599712
   1.43733174 11.33262433 16.77014310
   1.07865368 10.91526714  9.52151395
  18.74558710 17.73535644 16.28704956
  12.59506368  0.50191281 10.87439573
  14.11944805  5.71370469 16.25729988
  20.16990973  0.07395004  9.92550906
   2.22199659  2.70047811 12.55674536
   4.01370273  3.69671424 14.27253720
  15.00637423 12.76530097 12.22697399
  10.22576747  7.42551174 10.38808912
  13.45615603  1.05558456 15.34807687
   3.54535369 10.75328740 10.45651017
   6.26813510 10.91510113 10.54651395
  10.30702051  5.83862961 12.64390410
   5.57211440  2.87241773 11.55719116
   1.70332796  2.71985279 15.12262132
  19.77527016  9.86214600 16.12031052
  14.54261460  5.07285684 11.04652184
  14.10921452 16.15556596 12.56053950
   0.73477264  3.53889327 10.45741115
  14.22902713  3.54499327 14.72976600
   3.10901352 17.00414686 12.89022683
   1.87817340  5.07970515 13.75380469
   8.73092378  1.88224788 15.28699864
   1.55959997 12.62995531 14.40241873
  15.60335582  7.52728779 11.56015827
  18.71380214 13.21885558 15.16686556
  16.47777184 17.34580083 12.64014391
  13.96752345 11.48419342 14.88224462
  16.92262721  5.32192921 12.14235921
  22.88536303  5.69451360 14.71227282
   3.70882303 11.41495673 15.33853217
  14.82716522  5.92171361 13.65139239
  19.18221311  7.18396532 16.27582129
  22.44155659  0.49367766 11.20910044
   6.60355123  3.53251040 13.94282336
   5.83544193  8.02830396 12.39472924
   6.36534651 15.39685175 15.29372710
   4.76813504 12.42343385 13.08920785
   3.44435051  8.62697504 13.24126574
   5.25383077  7.65914080 14.96876344
  21.33745138  8.20429214 12.73515651
  20.36286723 12.76750071 12.47800922
  17.28034963  1.68227812 11.96927179
   5.20160189 16.84878525 10.96698378
   5.90053483  7.29518033 17.45142926
  14.76057216 16.00758063 15.95366392
   9.60385771 14.29878658 11.38342242
  21.48621551  3.55245637 13.66334053
   3.10309823  8.03742302  8.93260776
   3.63220806  5.50021683  8.34890949
   8.73253334  2.37219755  9.35415932
   0.80517394  5.28847194 17.03239736
  13.40739700  4.65476936  8.60535697
   5.72877843 13.95218751 17.46510418
   4.85490080 11.74990155  8.34376522
   6.44687148  7.10699146  9.87629901
   8.55333550 10.82900896  9.20004704
   5.29986878  1.01806603  9.62744117
   5.64688233  3.55318002  8.85384768
  11.73544815 16.16960912 12.22767567
  12.88786633 15.00019064 14.36544362
  12.74946835 11.72562921 17.08433693
  11.20975161  2.19467959 16.02451785
   6.15150706 12.57590472 15.28281192
  10.37076384 15.33909769 15.62497021
  17.91718248 11.17984150 17.46026224
  19.77523561 15.07049458 16.74951294
  14.97453024 13.40094742 16.69282911
   0.18997292  0.60493215 16.21039082
   6.66927321  0.02821675 15.96189632
  11.80638355 17.58902314 16.87951045
  10.14816529  7.64405062 19.02521567
   1.94841153 10.98908596 10.92575188
   9.57522537 13.86843357 15.44119755
  19.70678075  7.99967650 12.57708649
   0.40008717 17.94875972 10.58159830
   0.34415087  5.14987929 10.51358498
   0.21570233  2.08432227 15.39077208
  14.25468805 11.91556685 16.42916801
   5.00965608  8.62219007 13.70353130
  21.42278905 13.69169878 13.34099278
  12.18741762  2.00159257 11.45195358
   9.81040376  3.05976876 15.83218557
   1.95373172  2.52197018 10.94101594
  16.43233932  0.81266960 13.10088356
  15.56990048 16.27354967 11.76083937
  15.21965321  9.13359373 11.56390395
   4.64622069 16.53530673 12.47363180
   5.01945000  6.64090346 16.22632371
  15.76718769 14.74269113 15.98607019
   5.07531669 11.62382568 14.47535444
   8.63383069 13.32142384 12.34509184
  18.66698448 16.10009147 16.01462247
  20.59653245 16.53134285 13.76414334
  13.48745097 10.40773510 13.76040901
  13.81190487  2.09806703 14.11909491
  20.08975493  2.75647993 13.31199648
  19.55481403 10.93854288 17.36085396
   3.13099191  6.52942423  9.59392828
  18.51026388  5.07284540 11.87902451
   9.34522920  3.21642612 10.64589911
  20.03927084 13.59203219 16.03752212
   6.62362542 16.93121952 14.77557887
   0.54020936  5.98811771 13.50205012
  13.45117902 12.60314055 11.70943634
   5.39023881 13.63805193 12.15046292
  13.89334515  5.15048796 14.73319042
  22.82812325  4.93489880 16.20123407
  20.81044864  0.46044249 11.40392910
   2.45181687  3.54117174 13.91932685
   1.12715225 13.28353886 12.97472440
   5.43140201  3.72572444 15.08386785
  13.14328356  4.67138795 10.24864117
  11.14887055 11.37289719 16.74153605
   6.58317027 13.95658071 16.06749572
   4.88127424 11.65920104  9.99508876
  17.33301124 12.88076511 14.40509572
  23.09565954 17.95105812 14.79526511
  16.46058793 13.35205634 11.67438144
  18.44563410  1.07694297 15.50583775
  10.68289909  5.95194918 11.00303640
  10.53993626 16.94936933 15.96599980
  11.91927154  0.72936293 15.74300186
   5.71814202  6.71222076 11.31647527
  15.41693082  5.98004644 12.10686792
  10.79031159  5.75866779 14.21422955
   7.89661487 10.69048859 10.72869482
  18.79682524  8.63581959 15.58289749
   1.62029077 16.28843975 12.91760565
   4.96103076  2.61769098 10.04353415
   1.83153245  8.95161915 13.29886860
  13.05343995 15.44545689 12.76234739
  16.81078814 10.59865455 16.38750525
   6.71066321  3.80730339 12.34244318
   2.06579318 11.33486153 15.26010159
   8.28352212  0.33280959 15.54587206
  11.45256397  8.68044244 15.42477519
  11.16434459  8.95568677 18.55013445



--------------------------------------------------------------------------------------------------------


 k-point  1 :   0.0000 0.0000 0.0000  plane waves:  289505
 k-point  2 :   0.3333 0.0000 0.0000  plane waves:  289422
 k-point  3 :   0.0000 0.3333 0.0000  plane waves:  289550
 k-point  4 :   0.3333 0.3333 0.0000  plane waves:  289551
 k-point  5 :  -0.3333 0.3333 0.0000  plane waves:  289551

 maximum and minimum number of plane-waves per node :     72451    72309

 maximum number of plane-waves:    289551
 maximum index in each direction: 
   IXMAX=   43   IYMAX=   33   IZMAX=   49
   IXMIN=  -43   IYMIN=  -33   IZMIN=  -49


 real space projection operators:
  total allocation   :      13786.08 KBytes
  max/ min on nodes  :       3449.89       3443.25


 parallel 3D FFT for wavefunctions:
    minimum data exchange during FFTs selected (reduces bandwidth)
 parallel 3D FFT for charge:
    minimum data exchange during FFTs selected (reduces bandwidth)


 total amount of memory used by VASP MPI-rank0   389782. kBytes
=======================================================================

   base      :      30000. kBytes
   nonlr-proj:      16973. kBytes
   fftplans  :      22890. kBytes
   grid      :      38557. kBytes
   one-center:       1073. kBytes
   wavefun   :     280289. kBytes

     INWAV:  cpu time    0.0001: real time    0.0001
 Broyden mixing: mesh for mixing (old mesh)
   NGX = 85   NGY = 67   NGZ = 99
  (NGX  =256   NGY  =200   NGZ  =300)
  gives a total of 563805 points

 initial charge density was supplied:
 charge density of overlapping atoms calculated
 number of electron    1258.0000000 magnetization 
 keeping initial charge density in first step


--------------------------------------------------------------------------------------------------------


 Maximum index for non-local projection operator          659
 Maximum index for augmentation-charges          429 (set IRDMAX)


--------------------------------------------------------------------------------------------------------


 First call to EWALD:  gamma=   0.079
 Maximum number of real-space cells 3x 3x 2
 Maximum number of reciprocal cells 3x 2x 3

    FEWALD:  cpu time    0.0192: real time    0.0193


--------------------------------------- Iteration      1(   1)  ---------------------------------------


    POTLOK:  cpu time    0.1798: real time    0.1985
    SETDIJ:  cpu time    0.3594: real time    0.3610
     EDDAV:  cpu time   47.2625: real time   47.4726
       DOS:  cpu time    0.0018: real time    0.0018
    --------------------------------------------
      LOOP:  cpu time   47.8035: real time   48.0340

 eigenvalue-minimisations  :  8576
 total energy-change (2. order) : 0.1289998E+05  (-0.4947914E+05)
 number of electron    1258.0000000 magnetization 
 augmentation part     1258.0000000 magnetization 

 DIPCOR: dipole corrections for dipol
 direction  3 min pos    72,
 dipolmoment           0.000000      0.000000      1.884224 electrons x Angstroem
 Tr[quadrupol]    -95253.883442

 energy correction for charged system         0.000000 eV
 dipol+quadrupol energy correction           -0.028866 eV
 added-field ion interaction        241.084356 eV  (added to PSCEN)


 Free energy of the ion-electron system (eV)
  ---------------------------------------------------
  alpha Z        PSCENC =       731.21844347
  Ewald energy   TEWEN  =    309010.90242666
  -Hartree energ DENC   =   -371238.06575680
  -exchange      EXHF   =         0.00000000
  -V(xc)+E(xc)   XCENC  =      3778.29122602
  PAW double counting   =     59955.48764796   -58973.29898038
  entropy T*S    EENTRO =        -1.67675336
  eigenvalues    EBANDS =     -5070.12071519
  atomic energy  EATOM  =     74707.24229009
  Solvation  Ediel_sol  =         0.00000000
  ---------------------------------------------------
  free energy    TOTEN  =     12899.97982847 eV

  energy without entropy =    12901.65658183  energy(sigma->0) =    12900.81820515


--------------------------------------------------------------------------------------------------------




--------------------------------------- Iteration      1(   2)  ---------------------------------------


     EDDAV:  cpu time   57.0309: real time   57.3002
       DOS:  cpu time    0.0017: real time    0.0017
    --------------------------------------------
      LOOP:  cpu time   57.0326: real time   57.3018

 eigenvalue-minimisations  : 10800
 total energy-change (2. order) :-0.1228369E+05  (-0.1189761E+05)
 number of electron    1258.0000000 magnetization 
 augmentation part     1258.0000000 magnetization 

 DIPCOR: dipole corrections for dipol
 direction  3 min pos    72,
 dipolmoment           0.000000      0.000000      1.884224 electrons x Angstroem
 Tr[quadrupol]    -95253.883442

 energy correction for charged system         0.000000 eV
 dipol+quadrupol energy correction           -0.028866 eV
 added-field ion interaction        241.084356 eV  (added to PSCEN)


 Free energy of the ion-electron system (eV)
  ---------------------------------------------------
  alpha Z        PSCENC =       731.21844347
  Ewald energy   TEWEN  =    309010.90242666
  -Hartree energ DENC   =   -371238.06575680
  -exchange      EXHF   =         0.00000000
  -V(xc)+E(xc)   XCENC  =      3778.29122602
  PAW double counting   =     59955.48764796   -58973.29898038
  entropy T*S    EENTRO =        -0.00000000
  eigenvalues    EBANDS =    -17355.48738825
  atomic energy  EATOM  =     74707.24229009
  Solvation  Ediel_sol  =         0.00000000
  ---------------------------------------------------
  free energy    TOTEN  =       616.28990877 eV

  energy without entropy =      616.28990877  energy(sigma->0) =      616.28990877


--------------------------------------------------------------------------------------------------------




--------------------------------------- Iteration      1(   3)  ---------------------------------------


     EDDAV:  cpu time   48.8514: real time   49.0740
       DOS:  cpu time    0.0014: real time    0.0014
    --------------------------------------------
      LOOP:  cpu time   48.8528: real time   49.0754

 eigenvalue-minimisations  :  8912
 total energy-change (2. order) :-0.2633211E+04  (-0.2623720E+04)
 number of electron    1258.0000000 magnetization 
 augmentation part     1258.0000000 magnetization 

 DIPCOR: dipole corrections for dipol
 direction  3 min pos    72,
 dipolmoment           0.000000      0.000000      1.884224 electrons x Angstroem
 Tr[quadrupol]    -95253.883442

 energy correction for charged system         0.000000 eV
 dipol+quadrupol energy correction           -0.028866 eV
 added-field ion interaction        241.084356 eV  (added to PSCEN)


 Free energy of the ion-electron system (eV)
  ---------------------------------------------------
  alpha Z        PSCENC =       731.21844347
  Ewald energy   TEWEN  =    309010.90242666
  -Hartree energ DENC   =   -371238.06575680
  -exchange      EXHF   =         0.00000000
[...]
    0.0000000000E+00    0.0000000000E+00    0.0000000000E+00
    4.5318498527E-03    5.2212718833E-05    8.1410228450E-04
    0.0000000000E+00    0.0000000000E+00    0.0000000000E+00
    2.9535023406E-04   -4.0397711081E-03   -4.7693419746E-03
   -5.7056627974E-03   -4.8451269834E-04   -6.3243185591E-04
    0.0000000000E+00    0.0000000000E+00    0.0000000000E+00
    0.0000000000E+00    0.0000000000E+00    0.0000000000E+00
   -4.7829986708E-03   -1.8829601201E-03   -6.3651856833E-04
    0.0000000000E+00    0.0000000000E+00    0.0000000000E+00
   -1.0077081546E-03    5.1828760729E-05   -4.2606792752E-04
    0.0000000000E+00    0.0000000000E+00    0.0000000000E+00
    0.0000000000E+00    0.0000000000E+00    0.0000000000E+00
    0.0000000000E+00    0.0000000000E+00    0.0000000000E+00
    0.0000000000E+00    0.0000000000E+00    0.0000000000E+00
    2.1568058620E-03    1.1422094811E-03   -2.8829759658E-03
    0.0000000000E+00    0.0000000000E+00    0.0000000000E+00
   -2.7306768511E-04    9.8663224092E-04    1.6685997127E-04
   -5.2147876590E-03    3.7413468611E-03   -7.8317456599E-03
   -2.4226081494E-02    6.8372687157E-03   -3.4136773190E-02
    9.5126726038E-02   -3.9023890780E-02   -3.4834686440E-02
 Dimer: -----------------
 Dimer: Itr    1 Rot    0

 Dimer: Central Point
 Dimer: F0      0.175948

 Dimer: Projection
 Dimer: N*F0   2.7139719106268469E-002
 Dimer: F0sq   3.0957791911896942E-002
 Dimer: Feffsq    7.3656435316715491E-004
 Dimer: Feff
    3.8494868587E-03    4.5260039413E-04   -1.0025699781E-02
   -8.9552608175E-03    4.4249616715E-03   -1.5086376937E-03
    1.6880729366E-04    3.0366458646E-04   -1.8884749170E-03
   -1.2926899701E-03    4.7559740328E-04   -1.0334534182E-03
   -1.7180039859E-05   -4.3345121214E-05    3.5499016183E-05
   -0.0000000000E+00   -0.0000000000E+00   -0.0000000000E+00
   -0.0000000000E+00   -0.0000000000E+00   -0.0000000000E+00
   -0.0000000000E+00   -0.0000000000E+00   -0.0000000000E+00
   -0.0000000000E+00   -0.0000000000E+00   -0.0000000000E+00
   -0.0000000000E+00   -0.0000000000E+00   -0.0000000000E+00
   -0.0000000000E+00   -0.0000000000E+00   -0.0000000000E+00
    2.3144133924E-08    1.8591445977E-06   -1.3404853331E-05
   -0.0000000000E+00   -0.0000000000E+00   -0.0000000000E+00
    2.2380050996E-05   -1.5127764562E-05   -1.1884263660E-05
   -1.6892953697E-04    3.1577701001E-04    4.5439729995E-05
   -6.0908497007E-06   -5.7526977345E-05    9.3397146307E-06
    1.8281472184E-05   -2.3761591262E-05   -3.0622819041E-05
   -0.0000000000E+00   -0.0000000000E+00   -0.0000000000E+00
   -0.0000000000E+00   -0.0000000000E+00   -0.0000000000E+00
    6.6322128141E-06   -9.4751211203E-06   -3.1494494449E-05
   -0.0000000000E+00   -0.0000000000E+00   -0.0000000000E+00
   -0.0000000000E+00   -0.0000000000E+00   -0.0000000000E+00
   -0.0000000000E+00   -0.0000000000E+00   -0.0000000000E+00
   -0.0000000000E+00   -0.0000000000E+00   -0.0000000000E+00
   -0.0000000000E+00   -0.0000000000E+00   -0.0000000000E+00
    4.3175888279E-05    2.3561072626E-05   -1.7170185597E-05
   -0.0000000000E+00   -0.0000000000E+00   -0.0000000000E+00
   -0.0000000000E+00   -0.0000000000E+00   -0.0000000000E+00
   -0.0000000000E+00   -0.0000000000E+00   -0.0000000000E+00
   -0.0000000000E+00   -0.0000000000E+00   -0.0000000000E+00
   -0.0000000000E+00   -0.0000000000E+00   -0.0000000000E+00
   -0.0000000000E+00   -0.0000000000E+00   -0.0000000000E+00
   -1.3573278522E-05   -5.0998913872E-05   -1.1206806988E-05
    1.0467539362E-04   -2.4693851657E-04    2.9109010295E-05
    4.2893560341E-05   -3.1312421760E-05   -2.6484996524E-05
   -0.0000000000E+00   -0.0000000000E+00   -0.0000000000E+00
   -0.0000000000E+00   -0.0000000000E+00   -0.0000000000E+00
   -0.0000000000E+00   -0.0000000000E+00   -0.0000000000E+00
   -0.0000000000E+00   -0.0000000000E+00   -0.0000000000E+00
   -0.0000000000E+00   -0.0000000000E+00   -0.0000000000E+00
   -0.0000000000E+00   -0.0000000000E+00   -0.0000000000E+00
   -0.0000000000E+00   -0.0000000000E+00   -0.0000000000E+00
   -0.0000000000E+00   -0.0000000000E+00   -0.0000000000E+00
   -0.0000000000E+00   -0.0000000000E+00   -0.0000000000E+00
    9.4553406343E-05    1.9777301559E-04    5.9191859272E-05
    2.2955386389E-05   -1.2954817686E-05   -2.3083595177E-05
    2.5391601136E-05   -3.0113094914E-05    1.7258415724E-05
   -8.9905414826E-05   -1.0928645664E-04    3.4433595392E-05
    7.8936661546E-03   -8.5059928814E-03    1.7504543733E-02
   -4.1363564715E-05    1.2205901968E-03   -4.7771973843E-03
    2.1607074085E-04    2.7030225764E-03   -4.9870059787E-04
   -2.0028757871E-04    4.2843065230E-04   -4.9125358195E-04
   -6.5283673470E-04   -1.3955791448E-03    7.2094096407E-05
    2.0764045262E-04    1.0858071357E-03    2.6541647079E-04
   -9.2540558964E-04   -1.3844434276E-03   -1.0969283783E-03
   -3.4942137158E-04    1.4303679127E-03   -1.5696885749E-04
   -0.0000000000E+00   -0.0000000000E+00   -0.0000000000E+00
   -0.0000000000E+00   -0.0000000000E+00   -0.0000000000E+00
    1.0928151071E-04   -2.2064478732E-05   -1.4002731352E-05
    3.3243236998E-04   -7.5327920353E-04    6.0961211160E-04
   -1.5532971757E-06   -1.4889653747E-05    1.2221027535E-05
   -0.0000000000E+00   -0.0000000000E+00   -0.0000000000E+00
   -0.0000000000E+00   -0.0000000000E+00   -0.0000000000E+00
   -0.0000000000E+00   -0.0000000000E+00   -0.0000000000E+00
   -0.0000000000E+00   -0.0000000000E+00   -0.0000000000E+00
   -1.3151540965E-06   -3.5329354028E-05   -1.0417698256E-05
   -0.0000000000E+00   -0.0000000000E+00   -0.0000000000E+00
   -0.0000000000E+00   -0.0000000000E+00   -0.0000000000E+00
    2.1588458410E-04    1.8308699035E-04    3.8793047845E-04
   -0.0000000000E+00   -0.0000000000E+00   -0.0000000000E+00
    3.3677096025E-05   -1.4737614733E-05    2.8864723876E-05
   -0.0000000000E+00   -0.0000000000E+00   -0.0000000000E+00
   -0.0000000000E+00   -0.0000000000E+00   -0.0000000000E+00
   -0.0000000000E+00   -0.0000000000E+00   -0.0000000000E+00
    4.7477477931E-06   -3.1135415323E-05    1.3537296815E-05
    2.5631520289E-05   -8.8016517872E-06   -2.5900065256E-05
   -1.1531073676E-04    7.0213109649E-04    4.9098914623E-04
   -0.0000000000E+00   -0.0000000000E+00   -0.0000000000E+00
   -0.0000000000E+00   -0.0000000000E+00   -0.0000000000E+00
   -0.0000000000E+00   -0.0000000000E+00   -0.0000000000E+00
   -0.0000000000E+00   -0.0000000000E+00   -0.0000000000E+00
   -0.0000000000E+00   -0.0000000000E+00   -0.0000000000E+00
   -1.6346709286E-04   -1.8059967125E-05   -1.0143084730E-04
   -2.1771247361E-04   -3.4460584735E-04   -1.5002034478E-05
    6.1235666104E-05   -2.4105859731E-04    8.9517694365E-04
   -9.7404564814E-05   -6.6465602796E-05   -2.4880011846E-05
   -0.0000000000E+00   -0.0000000000E+00   -0.0000000000E+00
   -0.0000000000E+00   -0.0000000000E+00   -0.0000000000E+00
   -0.0000000000E+00   -0.0000000000E+00   -0.0000000000E+00
    8.0315953425E-04    1.6255020169E-03    1.5413857051E-04
   -0.0000000000E+00   -0.0000000000E+00   -0.0000000000E+00
   -0.0000000000E+00   -0.0000000000E+00   -0.0000000000E+00
   -0.0000000000E+00   -0.0000000000E+00   -0.0000000000E+00
   -0.0000000000E+00   -0.0000000000E+00   -0.0000000000E+00
   -0.0000000000E+00   -0.0000000000E+00   -0.0000000000E+00
   -1.6912389099E-04    3.9679680637E-05    4.5770472812E-05
    2.2580872237E-05   -1.1224328360E-05   -1.3914134579E-05
    7.7580717455E-06   -3.8870498255E-06   -6.9119992433E-05
   -0.0000000000E+00   -0.0000000000E+00   -0.0000000000E+00
   -0.0000000000E+00   -0.0000000000E+00   -0.0000000000E+00
    2.2795788519E-04   -5.0081816265E-05    3.3006761852E-05
   -0.0000000000E+00   -0.0000000000E+00   -0.0000000000E+00
   -6.5156600309E-05   -2.3521458030E-05    1.9355733305E-04
   -4.1637478119E-05    1.1379706598E-05   -4.4941208499E-05
   -0.0000000000E+00   -0.0000000000E+00   -0.0000000000E+00
   -9.0795045225E-05   -1.0775316122E-04    4.7390035659E-05
    1.4756757383E-04    1.0524039679E-04    2.6827086409E-04
   -5.2988979376E-05   -3.6233075643E-05   -4.0232048644E-06
   -1.4447392387E-06   -4.8122911007E-05   -3.8123196390E-05
   -0.0000000000E+00   -0.0000000000E+00   -0.0000000000E+00
    1.4644632410E-04   -3.1143362169E-06   -4.7220721679E-04
    5.2499590685E-05   -6.1879300132E-05    1.2692294710E-04
   -0.0000000000E+00   -0.0000000000E+00   -0.0000000000E+00
   -0.0000000000E+00   -0.0000000000E+00   -0.0000000000E+00
   -0.0000000000E+00   -0.0000000000E+00   -0.0000000000E+00
   -4.5093327563E-05   -3.8607998484E-05   -4.6046672493E-05
   -2.2741096787E-06   -3.9939920912E-06   -1.6392052098E-05
   -0.0000000000E+00   -0.0000000000E+00   -0.0000000000E+00
    2.1417782972E-04   -1.4815780553E-04    3.0523414185E-05
   -2.8284834803E-04   -1.1719871957E-05   -1.4688628407E-04
   -0.0000000000E+00   -0.0000000000E+00   -0.0000000000E+00
   -0.0000000000E+00   -0.0000000000E+00   -0.0000000000E+00
   -0.0000000000E+00   -0.0000000000E+00   -0.0000000000E+00
   -7.9666422699E-04    2.0413122678E-03    3.6049983724E-05
   -0.0000000000E+00   -0.0000000000E+00   -0.0000000000E+00
   -0.0000000000E+00   -0.0000000000E+00   -0.0000000000E+00
    7.1125591428E-04   -4.4856070228E-05    4.4371526498E-04
   -0.0000000000E+00   -0.0000000000E+00   -0.0000000000E+00
   -4.8871754137E-05    4.2057034942E-05   -5.3032188113E-04
   -0.0000000000E+00   -0.0000000000E+00   -0.0000000000E+00
   -2.9194844200E-04    3.0531346414E-05   -6.1304785359E-05
   -0.0000000000E+00   -0.0000000000E+00   -0.0000000000E+00
   -2.3187891142E-04    2.2419102361E-04   -4.4076210989E-04
   -0.0000000000E+00   -0.0000000000E+00   -0.0000000000E+00
    8.8737262762E-05   -7.2002172227E-06   -6.2575123785E-06
   -0.0000000000E+00   -0.0000000000E+00   -0.0000000000E+00
    2.3256627718E-05   -5.4057542154E-05   -4.7883904135E-05
    4.0999694918E-05   -6.2199471385E-05    2.8296817307E-06
   -0.0000000000E+00   -0.0000000000E+00   -0.0000000000E+00
   -2.3435579563E-05    1.0083507869E-05   -7.0700274061E-05
   -0.0000000000E+00   -0.0000000000E+00   -0.0000000000E+00
   -3.2639681337E-04    2.8096287790E-04   -2.1868022529E-05
   -0.0000000000E+00   -0.0000000000E+00   -0.0000000000E+00
   -0.0000000000E+00   -0.0000000000E+00   -0.0000000000E+00
    1.0466469598E-05   -1.8331903094E-04   -9.2263678622E-05
   -0.0000000000E+00   -0.0000000000E+00   -0.0000000000E+00
   -0.0000000000E+00   -0.0000000000E+00   -0.0000000000E+00
    1.1205320396E-04   -3.3595376295E-06   -4.4810416707E-05
   -0.0000000000E+00   -0.0000000000E+00   -0.0000000000E+00
   -0.0000000000E+00   -0.0000000000E+00   -0.0000000000E+00
   -0.0000000000E+00   -0.0000000000E+00   -0.0000000000E+00
   -0.0000000000E+00   -0.0000000000E+00   -0.0000000000E+00
    1.0528948692E-05    1.7657029480E-05   -6.2635350038E-06
    3.3300759419E-05    1.9046799939E-05   -2.8268920384E-05
   -0.0000000000E+00   -0.0000000000E+00   -0.0000000000E+00
   -0.0000000000E+00   -0.0000000000E+00   -0.0000000000E+00
   -0.0000000000E+00   -0.0000000000E+00   -0.0000000000E+00
   -2.8697840535E-05    4.4805083799E-05    1.0671789357E-04
   -0.0000000000E+00   -0.0000000000E+00   -0.0000000000E+00
    3.7233663960E-05   -1.3650362122E-06   -1.7593089833E-05
    1.1973965009E-04   -1.1160155330E-04   -6.8972985905E-05
   -5.1504420525E-05   -1.5736288429E-05   -3.1307218614E-06
   -0.0000000000E+00   -0.0000000000E+00   -0.0000000000E+00
   -1.1418439636E-04   -2.5156256737E-04    1.6531037637E-04
   -0.0000000000E+00   -0.0000000000E+00   -0.0000000000E+00
    1.5019916293E-04   -1.2370417359E-04    1.4117792349E-04
   -0.0000000000E+00   -0.0000000000E+00   -0.0000000000E+00
    1.8082469761E-05   -3.9253664026E-05   -2.9811053525E-06
   -6.1600137779E-05   -1.0194082157E-04   -7.7872073871E-05
   -0.0000000000E+00   -0.0000000000E+00   -0.0000000000E+00
    1.3288233110E-04    2.5971225157E-05    5.1132338430E-05
   -0.0000000000E+00   -0.0000000000E+00   -0.0000000000E+00
    5.3060171307E-05   -3.1713849327E-05   -5.8750856391E-06
   -0.0000000000E+00   -0.0000000000E+00   -0.0000000000E+00
   -2.9902397379E-04   -3.8785654076E-05    1.9620744723E-04
   -0.0000000000E+00   -0.0000000000E+00   -0.0000000000E+00
   -0.0000000000E+00   -0.0000000000E+00   -0.0000000000E+00
    5.4594349145E-05   -4.1454344095E-05   -4.2823126007E-05
   -0.0000000000E+00   -0.0000000000E+00   -0.0000000000E+00
   -0.0000000000E+00   -0.0000000000E+00   -0.0000000000E+00
   -0.0000000000E+00   -0.0000000000E+00   -0.0000000000E+00
   -0.0000000000E+00   -0.0000000000E+00   -0.0000000000E+00
    5.7610700000E-05   -2.6301517785E-04   -9.4712406208E-06
   -6.0888841875E-05   -1.1634572718E-04    1.3173604709E-04
   -0.0000000000E+00   -0.0000000000E+00   -0.0000000000E+00
   -0.0000000000E+00   -0.0000000000E+00   -0.0000000000E+00
   -0.0000000000E+00   -0.0000000000E+00   -0.0000000000E+00
   -0.0000000000E+00   -0.0000000000E+00   -0.0000000000E+00
   -0.0000000000E+00   -0.0000000000E+00   -0.0000000000E+00
    3.5246608984E-05   -2.8620633750E-05   -1.4338121168E-05
   -0.0000000000E+00   -0.0000000000E+00   -0.0000000000E+00
   -3.7714746676E-04   -2.4467971069E-04    1.7839358294E-04
   -0.0000000000E+00   -0.0000000000E+00   -0.0000000000E+00
   -0.0000000000E+00   -0.0000000000E+00   -0.0000000000E+00
   -0.0000000000E+00   -0.0000000000E+00   -0.0000000000E+00
   -0.0000000000E+00   -0.0000000000E+00   -0.0000000000E+00
   -0.0000000000E+00   -0.0000000000E+00   -0.0000000000E+00
   -0.0000000000E+00   -0.0000000000E+00   -0.0000000000E+00
   -5.2103190854E-05    6.3748904687E-05    3.5319937759E-05
    4.2528429733E-04    1.7859619109E-04    2.9628710396E-05
    1.3627106368E-04    2.7773615430E-05   -6.9305191743E-05
   -1.5613212953E-04   -1.8904626650E-04    1.9160914562E-05
   -2.4452656662E-04    8.1416974577E-05    1.8732532148E-04
    1.7585985860E-05   -8.1880360331E-05    9.8999383988E-05
   -3.2428337703E-05   -3.2374808159E-05   -7.0310209814E-05
    2.2357202896E-04   -1.7493324705E-04    7.8776911349E-05
    8.8461576494E-06   -5.9956702361E-06   -1.8539991711E-05
    7.3677625382E-05    1.3009281218E-04   -1.3563279942E-04
   -8.3900344585E-05    3.0564688924E-04    1.9819546172E-04
    3.6083885928E-05   -1.4062987571E-03    6.8459572074E-04
   -0.0000000000E+00   -0.0000000000E+00   -0.0000000000E+00
   -3.5909966534E-04    8.5346572648E-05    4.7665763423E-05
   -0.0000000000E+00   -0.0000000000E+00   -0.0000000000E+00
   -0.0000000000E+00   -0.0000000000E+00   -0.0000000000E+00
   -0.0000000000E+00   -0.0000000000E+00   -0.0000000000E+00
    1.5283095808E-05   -1.8110818437E-05   -1.9711147553E-05
   -1.7284808614E-04   -5.1297812663E-05    2.3084828079E-04
    5.3054066216E-06    1.1145899188E-05   -1.3221694760E-05
   -0.0000000000E+00   -0.0000000000E+00   -0.0000000000E+00
   -0.0000000000E+00   -0.0000000000E+00   -0.0000000000E+00
    4.4156775109E-05   -6.4953551662E-05   -4.3114795387E-05
   -0.0000000000E+00   -0.0000000000E+00   -0.0000000000E+00
   -0.0000000000E+00   -0.0000000000E+00   -0.0000000000E+00
   -0.0000000000E+00   -0.0000000000E+00   -0.0000000000E+00
   -0.0000000000E+00   -0.0000000000E+00   -0.0000000000E+00
   -0.0000000000E+00   -0.0000000000E+00   -0.0000000000E+00
    7.0709285129E-05    1.5257930996E-05   -1.7065721894E-05
    3.6874180097E-06   -1.0544979953E-04    6.1144655672E-06
    8.5698792287E-06   -6.3504865505E-06    7.8177279349E-07
   -0.0000000000E+00   -0.0000000000E+00   -0.0000000000E+00
   -1.2351069896E-05   -1.7042994225E-05   -5.4990493284E-05
    6.6799285952E-06   -3.4156937538E-06   -7.3384399617E-06
   -5.4703136337E-05   -7.4622315325E-06    4.8013385457E-05
    1.6711950434E-05    5.7776544994E-05   -1.2568499425E-05
   -0.0000000000E+00   -0.0000000000E+00   -0.0000000000E+00
    1.7256323114E-05   -1.5689191858E-05   -8.0426265000E-06
   -0.0000000000E+00   -0.0000000000E+00   -0.0000000000E+00
   -0.0000000000E+00   -0.0000000000E+00   -0.0000000000E+00
   -0.0000000000E+00   -0.0000000000E+00   -0.0000000000E+00
   -6.1017589502E-05   -6.7789849997E-05   -1.6538338773E-05
   -4.0894622923E-05   -2.1318803847E-04    1.2134822456E-04
   -0.0000000000E+00   -0.0000000000E+00   -0.0000000000E+00
   -0.0000000000E+00   -0.0000000000E+00   -0.0000000000E+00
   -0.0000000000E+00   -0.0000000000E+00   -0.0000000000E+00
   -4.6118804328E-05    7.1916341794E-05   -1.1150708607E-05
    2.4059388305E-05   -2.8916310807E-05   -1.4525228366E-05
   -0.0000000000E+00   -0.0000000000E+00   -0.0000000000E+00
    2.9707954522E-05   -5.2078373863E-06   -4.9137409153E-06
   -0.0000000000E+00   -0.0000000000E+00   -0.0000000000E+00
    2.1142474525E-05   -5.9083708412E-05   -1.9792545215E-05
   -0.0000000000E+00   -0.0000000000E+00   -0.0000000000E+00
   -1.7518250558E-04    2.6818406858E-04    3.6518573207E-04
   -6.6216925659E-04   -1.1858155867E-04    2.2325905880E-05
   -0.0000000000E+00   -0.0000000000E+00   -0.0000000000E+00
   -7.6088618115E-05   -1.0077671107E-04    1.5042906796E-05
    1.5997858600E-05   -1.5253159777E-05   -1.6447575270E-05
   -0.0000000000E+00   -0.0000000000E+00   -0.0000000000E+00
   -1.2299313203E-04   -1.4170385229E-06   -2.2094507325E-05
   -0.0000000000E+00   -0.0000000000E+00   -0.0000000000E+00
   -8.0157223903E-06    1.0963825313E-04    1.2943860151E-04
    1.5485008564E-04    1.3149538536E-05    1.7164022923E-05
   -0.0000000000E+00   -0.0000000000E+00   -0.0000000000E+00
   -0.0000000000E+00   -0.0000000000E+00   -0.0000000000E+00
    1.2980924041E-04    5.1103008748E-05    1.7274935150E-05
   -0.0000000000E+00   -0.0000000000E+00   -0.0000000000E+00
    2.7348916257E-05   -1.4066180078E-06    1.1563363873E-05
   -0.0000000000E+00   -0.0000000000E+00   -0.0000000000E+00
   -0.0000000000E+00   -0.0000000000E+00   -0.0000000000E+00
   -0.0000000000E+00   -0.0000000000E+00   -0.0000000000E+00
   -0.0000000000E+00   -0.0000000000E+00   -0.0000000000E+00
   -5.8535105261E-05   -3.0999244478E-05    7.8243157902E-05
   -0.0000000000E+00   -0.0000000000E+00   -0.0000000000E+00
    7.4109802709E-06   -2.6776921880E-05   -4.5285327503E-06
    1.4152787226E-04   -1.0153910289E-04    2.1255137732E-04
    6.5748904679E-04   -1.8556155240E-04    9.2646243557E-04
   -2.5817126242E-03    1.0590974342E-03    9.4540360513E-04
 
 stress matrix after NEB project (eV)
    -32.60060      0.13390      0.19115
      0.13390    -33.40547     -0.01353
      0.19115     -0.01353    -25.15963
  FORCES: max atom, RMS     0.049867    0.010591
  FORCE total and by dimension    0.175948    0.049775
  Stress total and by dimension   53.026791   33.405465
 OPT: skip step - force has converged


--------------------------------------------------------------------------------------------------------


  
 reached required accuracy - stopping structural energy minimisation
     LOOP+:  cpu time  997.4373: real time 1019.2316
    4ORBIT:  cpu time    0.0000: real time    0.0000

 total amount of memory used by VASP MPI-rank0   389782. kBytes
=======================================================================

   base      :      30000. kBytes
   nonlr-proj:      16973. kBytes
   fftplans  :      22890. kBytes
   grid      :      38557. kBytes
   one-center:       1073. kBytes
   wavefun   :     280289. kBytes

  
  
 General timing and accounting informations for this job:
 ========================================================
  
                  Total CPU time used (sec):     1084.129
                            User time (sec):     1079.774
                          System time (sec):        4.355
                         Elapsed time (sec):     1122.013
  
                   Maximum memory used (kb):      700248.
                   Average memory used (kb):           0.
  
                          Minor page faults:      1449332
                          Major page faults:          218
                 Voluntary context switches:        10143
