ESCALE ; pCOOP file generated by LOBSTER. Energy is shifted such that the Fermi level lies at 0 eV.
        76          1        801  -2.37681e+01   1.62820e+01  -3.74304e+00 
Average
No.1:O204->W271(1.925951578103841)
No.1:O204[2s]->W271[6s](1.925951578103841)
No.1:O204[2s]->W271[5d_xy](1.925951578103841)
No.1:O204[2s]->W271[5d_yz](1.925951578103841)
No.1:O204[2s]->W271[5d_z^2](1.925951578103841)
No.1:O204[2s]->W271[5d_xz](1.925951578103841)
No.1:O204[2s]->W271[5d_x^2-y^2](1.925951578103841)
No.1:O204[2p_y]->W271[6s](1.925951578103841)
No.1:O204[2p_y]->W271[5d_xy](1.925951578103841)
No.1:O204[2p_y]->W271[5d_yz](1.925951578103841)
No.1:O204[2p_y]->W271[5d_z^2](1.925951578103841)
No.1:O204[2p_y]->W271[5d_xz](1.925951578103841)
No.1:O204[2p_y]->W271[5d_x^2-y^2](1.925951578103841)
No.1:O204[2p_z]->W271[6s](1.925951578103841)
No.1:O204[2p_z]->W271[5d_xy](1.925951578103841)
No.1:O204[2p_z]->W271[5d_yz](1.925951578103841)
No.1:O204[2p_z]->W271[5d_z^2](1.925951578103841)
No.1:O204[2p_z]->W271[5d_xz](1.925951578103841)
No.1:O204[2p_z]->W271[5d_x^2-y^2](1.925951578103841)
No.1:O204[2p_x]->W271[6s](1.925951578103841)
No.1:O204[2p_x]->W271[5d_xy](1.925951578103841)
No.1:O204[2p_x]->W271[5d_yz](1.925951578103841)
No.1:O204[2p_x]->W271[5d_z^2](1.925951578103841)
No.1:O204[2p_x]->W271[5d_xz](1.925951578103841)
No.1:O204[2p_x]->W271[5d_x^2-y^2](1.925951578103841)
No.2:C1->W271(2.1751082075625972)
No.2:C1[2s]->W271[6s](2.1751082075625972)
No.2:C1[2s]->W271[5d_xy](2.1751082075625972)
No.2:C1[2s]->W271[5d_yz](2.1751082075625972)
No.2:C1[2s]->W271[5d_z^2](2.1751082075625972)
No.2:C1[2s]->W271[5d_xz](2.1751082075625972)
No.2:C1[2s]->W271[5d_x^2-y^2](2.1751082075625972)
No.2:C1[2p_y]->W271[6s](2.1751082075625972)
No.2:C1[2p_y]->W271[5d_xy](2.1751082075625972)
No.2:C1[2p_y]->W271[5d_yz](2.1751082075625972)
No.2:C1[2p_y]->W271[5d_z^2](2.1751082075625972)
No.2:C1[2p_y]->W271[5d_xz](2.1751082075625972)
No.2:C1[2p_y]->W271[5d_x^2-y^2](2.1751082075625972)
No.2:C1[2p_z]->W271[6s](2.1751082075625972)
No.2:C1[2p_z]->W271[5d_xy](2.1751082075625972)
No.2:C1[2p_z]->W271[5d_yz](2.1751082075625972)
No.2:C1[2p_z]->W271[5d_z^2](2.1751082075625972)
No.2:C1[2p_z]->W271[5d_xz](2.1751082075625972)
No.2:C1[2p_z]->W271[5d_x^2-y^2](2.1751082075625972)
No.2:C1[2p_x]->W271[6s](2.1751082075625972)
No.2:C1[2p_x]->W271[5d_xy](2.1751082075625972)
No.2:C1[2p_x]->W271[5d_yz](2.1751082075625972)
No.2:C1[2p_x]->W271[5d_z^2](2.1751082075625972)
No.2:C1[2p_x]->W271[5d_xz](2.1751082075625972)
No.2:C1[2p_x]->W271[5d_x^2-y^2](2.1751082075625972)
No.3:O205->W271(1.7209164153699461)
No.3:O205[2s]->W271[6s](1.7209164153699461)
No.3:O205[2s]->W271[5d_xy](1.7209164153699461)
No.3:O205[2s]->W271[5d_yz](1.7209164153699461)
No.3:O205[2s]->W271[5d_z^2](1.7209164153699461)
No.3:O205[2s]->W271[5d_xz](1.7209164153699461)
No.3:O205[2s]->W271[5d_x^2-y^2](1.7209164153699461)
No.3:O205[2p_y]->W271[6s](1.7209164153699461)
No.3:O205[2p_y]->W271[5d_xy](1.7209164153699461)
No.3:O205[2p_y]->W271[5d_yz](1.7209164153699461)
No.3:O205[2p_y]->W271[5d_z^2](1.7209164153699461)
No.3:O205[2p_y]->W271[5d_xz](1.7209164153699461)
No.3:O205[2p_y]->W271[5d_x^2-y^2](1.7209164153699461)
No.3:O205[2p_z]->W271[6s](1.7209164153699461)
No.3:O205[2p_z]->W271[5d_xy](1.7209164153699461)
No.3:O205[2p_z]->W271[5d_yz](1.7209164153699461)
No.3:O205[2p_z]->W271[5d_z^2](1.7209164153699461)
No.3:O205[2p_z]->W271[5d_xz](1.7209164153699461)
No.3:O205[2p_z]->W271[5d_x^2-y^2](1.7209164153699461)
No.3:O205[2p_x]->W271[6s](1.7209164153699461)
No.3:O205[2p_x]->W271[5d_xy](1.7209164153699461)
No.3:O205[2p_x]->W271[5d_yz](1.7209164153699461)
No.3:O205[2p_x]->W271[5d_z^2](1.7209164153699461)
No.3:O205[2p_x]->W271[5d_xz](1.7209164153699461)
No.3:O205[2p_x]->W271[5d_x^2-y^2](1.7209164153699461)
-20.02503   0.00000   0.00008   0.00000   0.00039   0.00000   0.00019   0.00000   0.00028   0.00000   0.00004   0.00000  -0.00002   0.00000  -0.00002   0.00000  -0.00007   0.00000   0.00001   0.00000  -0.00001   0.00000  -0.00000   0.00000  -0.00000   0.00000  -0.00000   0.00000  -0.00002   0.00000  -0.00000   0.00000  -0.00001   0.00000   0.00000   0.00000  -0.00000   0.00000   0.00000   0.00000   0.00000   0.00000   0.00000   0.00000   0.00002   0.00000   0.00000   0.00000  -0.00000   0.00000  -0.00000   0.00000   0.00000   0.00000  -0.00003   0.00000   0.00002   0.00000  -0.00003   0.00000  -0.00002   0.00000  -0.00000   0.00000   0.00000   0.00000   0.00000   0.00000   0.00000   0.00000  -0.00000   0.00000   0.00000   0.00000   0.00001   0.00000  -0.00001   0.00000  -0.00000   0.00000   0.00001   0.00000  -0.00001   0.00000  -0.00000   0.00000  -0.00000   0.00000  -0.00000   0.00000   0.00000   0.00000  -0.00000   0.00000  -0.00000   0.00000   0.00000   0.00000   0.00000   0.00000   0.00000   0.00000  -0.00000   0.00000  -0.00010   0.00000   0.00006   0.00000  -0.00012   0.00000   0.00001   0.00000  -0.00002   0.00000   0.00002   0.00000  -0.00003   0.00000   0.00000   0.00000   0.00000   0.00000  -0.00000   0.00000   0.00000   0.00000   0.00000   0.00000  -0.00001   0.00000   0.00000   0.00000  -0.00001   0.00000  -0.00000   0.00000  -0.00000   0.00000  -0.00000   0.00000  -0.00000   0.00000   0.00000   0.00000  -0.00002   0.00000   0.00000   0.00000   0.00000   0.00000   0.00000   0.00000   0.00001
-19.97497   0.00026   0.00010   0.00090   0.00043   0.00031   0.00020   0.00050   0.00030   0.00010   0.00004   0.00003  -0.00002   0.00008  -0.00001  -0.00010  -0.00007   0.00001   0.00001  -0.00001  -0.00001  -0.00000  -0.00000   0.00000  -0.00000   0.00001  -0.00000  -0.00003  -0.00002  -0.00000  -0.00000  -0.00002  -0.00001   0.00001   0.00000  -0.00002  -0.00001   0.00001   0.00000   0.00001   0.00000   0.00001   0.00000   0.00002   0.00002   0.00000   0.00000  -0.00000  -0.00000  -0.00000  -0.00000   0.00000   0.00000  -0.00003  -0.00003   0.00003   0.00003  -0.00004  -0.00003  -0.00004  -0.00002  -0.00001  -0.00000   0.00002   0.00001   0.00000   0.00000   0.00001   0.00000  -0.00000  -0.00000   0.00000   0.00000   0.00001   0.00001  -0.00001  -0.00001   0.00000  -0.00000   0.00001   0.00001  -0.00001  -0.00001  -0.00001  -0.00000   0.00000  -0.00000   0.00000  -0.00000   0.00000   0.00000  -0.00000  -0.00000  -0.00000  -0.00000   0.00001   0.00000   0.00001   0.00000   0.00000   0.00000  -0.00000  -0.00000  -0.00009  -0.00011   0.00009   0.00006  -0.00014  -0.00013   0.00001   0.00001  -0.00002  -0.00002   0.00001   0.00002  -0.00002  -0.00003   0.00000   0.00000   0.00000   0.00000  -0.00000  -0.00000  -0.00000   0.00000  -0.00000   0.00000  -0.00001  -0.00001   0.00000   0.00000  -0.00001  -0.00001  -0.00000  -0.00000   0.00000  -0.00000   0.00000  -0.00000  -0.00000  -0.00000   0.00000   0.00000  -0.00002  -0.00002   0.00001   0.00000   0.00000   0.00000  -0.00000   0.00000   0.00000   0.00001
-19.92491   0.00030   0.00011   0.00103   0.00048   0.00031   0.00022   0.00055   0.00033   0.00010   0.00005   0.00003  -0.00002   0.00012  -0.00001  -0.00009  -0.00008   0.00001   0.00001  -0.00001  -0.00001  -0.00000  -0.00000   0.00000  -0.00000   0.00002  -0.00000  -0.00003  -0.00003  -0.00000  -0.00000  -0.00003  -0.00001   0.00001   0.00000  -0.00002  -0.00001   0.00001   0.00000   0.00000   0.00000   0.00001   0.00000   0.00002   0.00002   0.00000   0.00000  -0.00000  -0.00000   0.00000  -0.00000   0.00000   0.00000  -0.00002  -0.00003   0.00003   0.00003  -0.00004  -0.00003  -0.00004  -0.00002  -0.00001  -0.00000   0.00002   0.00001   0.00000   0.00000   0.00001   0.00000  -0.00000  -0.00000   0.00000   0.00000   0.00001   0.00001  -0.00001  -0.00001   0.00000  -0.00000   0.00001   0.00001  -0.00001  -0.00001  -0.00000  -0.00000   0.00000  -0.00000   0.00000  -0.00000   0.00000   0.00000  -0.00000  -0.00000  -0.00000  -0.00000   0.00001   0.00000   0.00001   0.00000   0.00000   0.00000  -0.00000  -0.00000  -0.00010  -0.00011   0.00007   0.00006  -0.00013  -0.00014   0.00001   0.00001  -0.00002  -0.00002   0.00001   0.00003  -0.00002  -0.00003   0.00000   0.00000   0.00000   0.00000  -0.00000  -0.00000  -0.00000   0.00000  -0.00000   0.00000  -0.00001  -0.00001   0.00000   0.00000  -0.00001  -0.00001  -0.00000  -0.00000   0.00000  -0.00000   0.00000  -0.00000  -0.00000  -0.00000   0.00000   0.00000  -0.00002  -0.00002   0.00001   0.00001   0.00000   0.00000  -0.00000   0.00000   0.00000   0.00001
-19.87484   0.00046   0.00013   0.00152   0.00056   0.00040   0.00024   0.00074   0.00037   0.00014   0.00005   0.00006  -0.00001   0.00023   0.00001  -0.00006  -0.00008   0.00001   0.00001  -0.00001  -0.00001  -0.00000  -0.00000   0.00000  -0.00000   0.00003   0.00000  -0.00002  -0.00003  -0.00001  -0.00000  -0.00003  -0.00001   0.00001   0.00000  -0.00002  -0.00001   0.00001   0.00000   0.00000   0.00000   0.00001   0.00000   0.00003   0.00002   0.00001   0.00000  -0.00000  -0.00000   0.00000  -0.00000   0.00000   0.00000  -0.00001  -0.00003   0.00004   0.00003  -0.00004  -0.00004  -0.00004  -0.00003  -0.00001  -0.00000   0.00003   0.00001   0.00000   0.00000   0.00001   0.00000  -0.00000  -0.00000   0.00000   0.00000   0.00001   0.00001  -0.00000  -0.00001   0.00000  -0.00000   0.00001   0.00001  -0.00001  -0.00002  -0.00000  -0.00000   0.00000  -0.00000   0.00000  -0.00000   0.00000   0.00000  -0.00000  -0.00000  -0.00000  -0.00000   0.00001   0.00001   0.00001   0.00000   0.00000   0.00000  -0.00000  -0.00000  -0.00013  -0.00012   0.00006   0.00007  -0.00014  -0.00014   0.00001   0.00001  -0.00002  -0.00002  -0.00000   0.00003  -0.00001  -0.00003   0.00000   0.00000   0.00000   0.00000  -0.00000  -0.00000  -0.00000   0.00000  -0.00000   0.00000  -0.00000  -0.00001   0.00000   0.00000  -0.00001  -0.00001  -0.00000  -0.00000   0.00000  -0.00000   0.00000  -0.00000  -0.00000  -0.00000   0.00000   0.00000  -0.00002  -0.00002   0.00000   0.00001   0.00000   0.00000  -0.00000   0.00000   0.00000   0.00001
-19.82478   0.00088   0.00018   0.00283   0.00070   0.00069   0.00027   0.00124   0.00043   0.00024   0.00007   0.00013  -0.00001   0.00050   0.00003  -0.00003  -0.00008   0.00002   0.00001  -0.00002  -0.00001  -0.00000  -0.00000   0.00000  -0.00000   0.00006   0.00000  -0.00001  -0.00003  -0.00001  -0.00000  -0.00006  -0.00002   0.00001   0.00000  -0.00003  -0.00001   0.00002   0.00000   0.00000   0.00000   0.00001   0.00000   0.00005   0.00002   0.00001   0.00000   0.00000  -0.00000   0.00001  -0.00000   0.00000   0.00000   0.00000  -0.00003   0.00006   0.00003  -0.00006  -0.00004  -0.00005  -0.00003  -0.00001  -0.00000   0.00004   0.00001   0.00000   0.00000   0.00001   0.00000  -0.00000  -0.00000  -0.00000   0.00000   0.00000   0.00001   0.00000  -0.00001   0.00000  -0.00000   0.00001   0.00001  -0.00001  -0.00002  -0.00000  -0.00000   0.00000  -0.00000   0.00000  -0.00000   0.00000   0.00000  -0.00000  -0.00000  -0.00000  -0.00000   0.00001   0.00001   0.00001   0.00000   0.00000   0.00000  -0.00000  -0.00000  -0.00018  -0.00013   0.00008   0.00007  -0.00019  -0.00015   0.00002   0.00001  -0.00001  -0.00002  -0.00003   0.00002  -0.00001  -0.00003   0.00000   0.00000   0.00000   0.00000  -0.00000  -0.00000  -0.00000   0.00000  -0.00001   0.00000  -0.00000  -0.00001   0.00000   0.00000  -0.00002  -0.00001  -0.00000  -0.00000   0.00000  -0.00000   0.00000  -0.00000  -0.00000  -0.00000   0.00000   0.00000  -0.00003  -0.00003   0.00001   0.00001   0.00000   0.00000  -0.00001   0.00000   0.00000   0.00001
-19.77472   0.00182   0.00027   0.00570   0.00099   0.00134   0.00034   0.00230   0.00054   0.00047   0.00009   0.00030   0.00001   0.00108   0.00008   0.00003  -0.00008   0.00004   0.00001  -0.00004  -0.00001  -0.00001  -0.00000   0.00000   0.00000   0.00013   0.00001   0.00000  -0.00003  -0.00002  -0.00000  -0.00011  -0.00002   0.00002   0.00000  -0.00005  -0.00001   0.00004   0.00001  -0.00000   0.00000   0.00002   0.00001   0.00008   0.00003   0.00002   0.00000   0.00000  -0.00000   0.00003  -0.00000  -0.00000   0.00000   0.00003  -0.00003   0.00013   0.00004  -0.00010  -0.00004  -0.00008  -0.00003  -0.00003  -0.00001   0.00008   0.00001   0.00000   0.00000   0.00001   0.00000  -0.00000  -0.00000  -0.00000   0.00000  -0.00001   0.00001   0.00002  -0.00001   0.00000  -0.00000   0.00001   0.00001  -0.00001  -0.00002  -0.00000  -0.00000   0.00000  -0.00000   0.00000  -0.00000   0.00000   0.00000  -0.00001  -0.00000  -0.00001  -0.00000   0.00001   0.00001   0.00001   0.00000   0.00001   0.00000  -0.00000  -0.00000  -0.00029  -0.00014   0.00013   0.00008  -0.00031  -0.00017   0.00004   0.00001   0.00000  -0.00002  -0.00009   0.00002  -0.00000  -0.00003   0.00000   0.00000   0.00001   0.00000  -0.00000  -0.00000  -0.00000   0.00000  -0.00001  -0.00000  -0.00000  -0.00001   0.00000   0.00000  -0.00002  -0.00001  -0.00000  -0.00000   0.00001  -0.00000   0.00001  -0.00000  -0.00000  -0.00000   0.00001   0.00000  -0.00004  -0.00003   0.00001   0.00001  -0.00000   0.00000  -0.00001   0.00000   0.00000   0.00001
-19.72466   0.00359   0.00045   0.01112   0.00154   0.00261   0.00047   0.00427   0.00076   0.00090   0.00013   0.00062   0.00004   0.00219   0.00019   0.00015  -0.00007   0.00008   0.00002  -0.00008  -0.00002  -0.00002  -0.00000   0.00001   0.00000   0.00025   0.00002   0.00004  -0.00003  -0.00003  -0.00001  -0.00020  -0.00003   0.00003   0.00001  -0.00009  -0.00002   0.00008   0.00001  -0.00001   0.00000   0.00004   0.00001   0.00015   0.00004   0.00005   0.00001   0.00000  -0.00000   0.00007   0.00000  -0.00000   0.00000   0.00010  -0.00003   0.00025   0.00005  -0.00018  -0.00005  -0.00014  -0.00004  -0.00005  -0.00001   0.00016   0.00002  -0.00000   0.00000   0.00002   0.00000  -0.00000  -0.00000  -0.00000   0.00000  -0.00002   0.00001   0.00004  -0.00001   0.00000  -0.00000   0.00001   0.00001  -0.00002  -0.00002  -0.00001  -0.00000   0.00000  -0.00000   0.00001  -0.00000   0.00000   0.00000  -0.00001  -0.00000  -0.00001  -0.00000   0.00002   0.00001   0.00002   0.00000   0.00001   0.00000   0.00000  -0.00000  -0.00045  -0.00017   0.00023   0.00009  -0.00052  -0.00020   0.00009   0.00002   0.00004  -0.00002  -0.00021   0.00001   0.00001  -0.00003   0.00000   0.00000   0.00001   0.00001  -0.00000  -0.00000  -0.00000   0.00000  -0.00002  -0.00000   0.00000  -0.00001   0.00000   0.00000  -0.00004  -0.00002  -0.00001  -0.00000   0.00001  -0.00000   0.00002   0.00000   0.00000  -0.00000   0.00001   0.00001  -0.00007  -0.00003   0.00002   0.00001  -0.00000   0.00000  -0.00003  -0.00000  -0.00000   0.00001
-19.67459   0.00655   0.00078   0.02012   0.00255   0.00478   0.00071   0.00743   0.00113   0.00161   0.00022   0.00116   0.00010   0.00403   0.00040   0.00039  -0.00005   0.00015   0.00002  -0.00013  -0.00002  -0.00003  -0.00000   0.00001   0.00000   0.00046   0.00005   0.00010  -0.00002  -0.00006  -0.00001  -0.00035  -0.00005   0.00006   0.00001  -0.00016  -0.00002   0.00014   0.00002  -0.00002   0.00000   0.00007   0.00001   0.00025   0.00005   0.00009   0.00001   0.00000  -0.00000   0.00013   0.00001  -0.00001   0.00000   0.00021  -0.00002   0.00046   0.00007  -0.00031  -0.00007  -0.00024  -0.00005  -0.00009  -0.00001   0.00028   0.00004  -0.00001   0.00000   0.00004   0.00001  -0.00000  -0.00000  -0.00000  -0.00000  -0.00004   0.00001   0.00007  -0.00000   0.00001  -0.00000   0.00001   0.00001  -0.00003  -0.00002  -0.00001  -0.00000   0.00000  -0.00000   0.00001  -0.00000  -0.00000   0.00000  -0.00002  -0.00000  -0.00002  -0.00001   0.00004   0.00001   0.00003   0.00001   0.00002   0.00000   0.00001  -0.00000  -0.00069  -0.00020   0.00042   0.00011  -0.00086  -0.00024   0.00017   0.00003   0.00009  -0.00001  -0.00040  -0.00001   0.00003  -0.00003   0.00001   0.00000   0.00002   0.00001  -0.00000  -0.00000  -0.00000   0.00000  -0.00004  -0.00000   0.00001  -0.00001   0.00001   0.00000  -0.00007  -0.00002  -0.00001  -0.00000   0.00003  -0.00000   0.00003   0.00000   0.00000  -0.00000   0.00002   0.00001  -0.00011  -0.00004   0.00004   0.00001  -0.00000   0.00000  -0.00005  -0.00000  -0.00000   0.00001
-19.62453   0.01085   0.00132   0.03316   0.00421   0.00797   0.00111   0.01188   0.00172   0.00262   0.00035   0.00194   0.00020   0.00672   0.00073   0.00082  -0.00001   0.00025   0.00004  -0.00021  -0.00003  -0.00005  -0.00001   0.00002   0.00000   0.00077   0.00009   0.00021  -0.00001  -0.00010  -0.00001  -0.00055  -0.00008   0.00009   0.00001  -0.00027  -0.00004   0.00024   0.00003  -0.00004  -0.00000   0.00012   0.00002   0.00039   0.00007   0.00014   0.00002   0.00001   0.00000   0.00021   0.00002  -0.00001   0.00000   0.00038   0.00000   0.00077   0.00011  -0.00049  -0.00009  -0.00039  -0.00007  -0.00015  -0.00002   0.00047   0.00006  -0.00001   0.00000   0.00007   0.00001  -0.00001  -0.00000  -0.00001  -0.00000  -0.00007   0.00000   0.00012   0.00000   0.00002   0.00000   0.00002   0.00001  -0.00004  -0.00002  -0.00002  -0.00001   0.00001  -0.00000   0.00002   0.00000  -0.00000   0.00000  -0.00004  -0.00000  -0.00003  -0.00001   0.00006   0.00001   0.00004   0.00001   0.00003   0.00001   0.00001  -0.00000  -0.00099  -0.00025   0.00068   0.00014  -0.00130  -0.00030   0.00027   0.00004   0.00016  -0.00001  -0.00067  -0.00005   0.00006  -0.00003   0.00001   0.00000   0.00003   0.00001  -0.00001  -0.00000  -0.00000  -0.00000  -0.00006  -0.00001   0.00001  -0.00001   0.00001   0.00000  -0.00010  -0.00002  -0.00002  -0.00000   0.00005   0.00000   0.00005   0.00000   0.00001  -0.00000   0.00003   0.00001  -0.00016  -0.00005   0.00007   0.00001  -0.00000   0.00000  -0.00008  -0.00001  -0.00001   0.00001
-19.57447   0.01629   0.00214   0.04955   0.00669   0.01206   0.00171   0.01723   0.00259   0.00384   0.00054   0.00292   0.00034   0.01013   0.00124   0.00148   0.00006   0.00038   0.00006  -0.00031  -0.00005  -0.00007  -0.00001   0.00003   0.00000   0.00116   0.00014   0.00038   0.00001  -0.00016  -0.00002  -0.00081  -0.00012   0.00014   0.00002  -0.00040  -0.00006   0.00036   0.00005  -0.00007  -0.00000   0.00017   0.00003   0.00056   0.00010   0.00021   0.00003   0.00001   0.00000   0.00032   0.00004  -0.00002   0.00000   0.00063   0.00003   0.00115   0.00017  -0.00070  -0.00013  -0.00056  -0.00010  -0.00022  -0.00003   0.00070   0.00010  -0.00002   0.00000   0.00010   0.00001  -0.00001  -0.00000  -0.00001  -0.00000  -0.00010  -0.00000   0.00018   0.00001   0.00003   0.00000   0.00003   0.00001  -0.00005  -0.00002  -0.00002  -0.00001   0.00001  -0.00000   0.00003   0.00000  -0.00000   0.00000  -0.00006  -0.00001  -0.00005  -0.00001   0.00009   0.00002   0.00007   0.00001   0.00005   0.00001   0.00002  -0.00000  -0.00130  -0.00032   0.00100   0.00019  -0.00181  -0.00040   0.00040   0.00006   0.00024   0.00001  -0.00097  -0.00009   0.00010  -0.00002   0.00002   0.00000   0.00004   0.00001  -0.00001  -0.00000  -0.00000  -0.00000  -0.00009  -0.00001   0.00002  -0.00001   0.00002   0.00000  -0.00015  -0.00003  -0.00003  -0.00000   0.00007   0.00000   0.00007   0.00001   0.00001  -0.00000   0.00005   0.00001  -0.00022  -0.00006   0.00009   0.00002  -0.00001  -0.00000  -0.00012  -0.00001  -0.00001   0.00000
-19.52441   0.02215   0.00325   0.06707   0.01005   0.01653   0.00254   0.02262   0.00372   0.00510   0.00079   0.00395   0.00054   0.01385   0.00193   0.00238   0.00018   0.00052   0.00008  -0.00040  -0.00007  -0.00009  -0.00001   0.00004   0.00000   0.00158   0.00022   0.00061   0.00004  -0.00021  -0.00003  -0.00106  -0.00017   0.00018   0.00003  -0.00054  -0.00008   0.00049   0.00007  -0.00012  -0.00001   0.00024   0.00004   0.00072   0.00013   0.00027   0.00004   0.00002   0.00000   0.00043   0.00006  -0.00003  -0.00000   0.00094   0.00008   0.00156   0.00025  -0.00091  -0.00017  -0.00074  -0.00013  -0.00030  -0.00005   0.00094   0.00014  -0.00004   0.00000   0.00014   0.00002  -0.00001  -0.00000  -0.00001  -0.00000  -0.00014  -0.00001   0.00025   0.00003   0.00005   0.00000   0.00003   0.00001  -0.00007  -0.00003  -0.00003  -0.00001   0.00001  -0.00000   0.00003   0.00000  -0.00000   0.00000  -0.00009  -0.00001  -0.00007  -0.00001   0.00012   0.00002   0.00009   0.00002   0.00007   0.00001   0.00004  -0.00000  -0.00156  -0.00039   0.00131   0.00026  -0.00228  -0.00051   0.00051   0.00009   0.00032   0.00002  -0.00127  -0.00016   0.00015  -0.00001   0.00003   0.00001   0.00005   0.00001  -0.00001  -0.00000  -0.00000  -0.00000  -0.00012  -0.00002   0.00004  -0.00000   0.00002   0.00000  -0.00019  -0.00004  -0.00004  -0.00001   0.00009   0.00001   0.00009   0.00001   0.00001  -0.00000   0.00006   0.00001  -0.00028  -0.00007   0.00012   0.00002  -0.00001  -0.00000  -0.00015  -0.00002  -0.00002   0.00000
-19.47434   0.02732   0.00461   0.08238   0.01417   0.02054   0.00357   0.02685   0.00506   0.00612   0.00110   0.00485   0.00078   0.01720   0.00279   0.00344   0.00035   0.00064   0.00011  -0.00048  -0.00009  -0.00011  -0.00002   0.00004   0.00001   0.00196   0.00032   0.00088   0.00008  -0.00027  -0.00005  -0.00127  -0.00023   0.00022   0.00004  -0.00066  -0.00012   0.00062   0.00010  -0.00017  -0.00002   0.00029   0.00005   0.00085   0.00017   0.00032   0.00006   0.00002   0.00000   0.00053   0.00008  -0.00004  -0.00000   0.00126   0.00014   0.00192   0.00034  -0.00107  -0.00023  -0.00087  -0.00018  -0.00036  -0.00006   0.00114   0.00020  -0.00005  -0.00000   0.00018   0.00003  -0.00002  -0.00000  -0.00001  -0.00000  -0.00017  -0.00002   0.00031   0.00004   0.00007   0.00001   0.00004   0.00001  -0.00007  -0.00003  -0.00003  -0.00001   0.00001   0.00000   0.00003   0.00000  -0.00000   0.00000  -0.00011  -0.00002  -0.00008  -0.00002   0.00014   0.00003   0.00011   0.00002   0.00009   0.00002   0.00006   0.00000  -0.00169  -0.00048   0.00153   0.00034  -0.00258  -0.00064   0.00058   0.00012   0.00037   0.00004  -0.00148  -0.00023   0.00020  -0.00000   0.00003   0.00001   0.00006   0.00002  -0.00001  -0.00000  -0.00000  -0.00000  -0.00015  -0.00002   0.00005  -0.00000   0.00003   0.00001  -0.00022  -0.00005  -0.00004  -0.00001   0.00011   0.00001   0.00011   0.00002   0.00002  -0.00000   0.00007   0.00002  -0.00031  -0.00009   0.00013   0.00003  -0.00001  -0.00000  -0.00017  -0.00003  -0.00002   0.00000
-19.42428   0.03065   0.00615   0.09209   0.01878   0.02322   0.00473   0.02886   0.00651   0.00666   0.00143   0.00542   0.00105   0.01949   0.00377   0.00452   0.00058   0.00072   0.00015  -0.00051  -0.00012  -0.00012  -0.00003   0.00005   0.00001   0.00222   0.00043   0.00115   0.00014  -0.00030  -0.00006  -0.00137  -0.00030   0.00024   0.00005  -0.00075  -0.00015   0.00070   0.00014  -0.00022  -0.00003   0.00032   0.00007   0.00090   0.00022   0.00034   0.00008   0.00002   0.00000   0.00058   0.00011  -0.00006  -0.00001   0.00153   0.00022   0.00213   0.00045  -0.00113  -0.00028  -0.00093  -0.00022  -0.00039  -0.00008   0.00127   0.00026  -0.00007  -0.00001   0.00020   0.00004  -0.00002  -0.00000  -0.00002  -0.00000  -0.00020  -0.00003   0.00036   0.00006   0.00009   0.00001   0.00004   0.00002  -0.00007  -0.00003  -0.00003  -0.00001   0.00001   0.00000   0.00003   0.00001  -0.00000   0.00000  -0.00012  -0.00002  -0.00008  -0.00002   0.00015   0.00004   0.00012   0.00003   0.00010   0.00002   0.00007   0.00001  -0.00165  -0.00056   0.00161   0.00042  -0.00262  -0.00077   0.00059   0.00015   0.00038   0.00006  -0.00153  -0.00031   0.00024   0.00001   0.00003   0.00001   0.00006   0.00002  -0.00001  -0.00000  -0.00000  -0.00000  -0.00015  -0.00003   0.00006   0.00000   0.00003   0.00001  -0.00022  -0.00006  -0.00004  -0.00001   0.00011   0.00002   0.00012   0.00002   0.00002   0.00000   0.00007   0.00002  -0.00031  -0.00010   0.00013   0.00004  -0.00001  -0.00000  -0.00017  -0.00004  -0.00002   0.00000
-19.37422   0.03141   0.00772   0.09397   0.02349   0.02395   0.00593   0.02815   0.00792   0.00658   0.00176   0.00552   0.00133   0.02021   0.00478   0.00538   0.00085   0.00074   0.00019  -0.00050  -0.00014  -0.00012  -0.00003   0.00005   0.00001   0.00229   0.00055   0.00137   0.00021  -0.00032  -0.00008  -0.00135  -0.00037   0.00024   0.00006  -0.00077  -0.00019   0.00074   0.00018  -0.00026  -0.00004   0.00032   0.00008   0.00086   0.00026   0.00033   0.00009   0.00002   0.00000   0.00059   0.00014  -0.00007  -0.00001   0.00169   0.00031   0.00215   0.00056  -0.00108  -0.00034  -0.00091  -0.00027  -0.00039  -0.00010   0.00129   0.00033  -0.00008  -0.00001   0.00021   0.00005  -0.00002  -0.00000  -0.00002  -0.00000  -0.00020  -0.00004   0.00038   0.00008   0.00011   0.00002   0.00003   0.00002  -0.00006  -0.00004  -0.00002  -0.00001   0.00001   0.00000   0.00003   0.00001  -0.00000   0.00000  -0.00012  -0.00003  -0.00008  -0.00002   0.00015   0.00004   0.00012   0.00003   0.00010   0.00003   0.00009   0.00001  -0.00144  -0.00063   0.00150   0.00049  -0.00239  -0.00089   0.00053   0.00017   0.00033   0.00008  -0.00141  -0.00038   0.00026   0.00002   0.00003   0.00001   0.00006   0.00002  -0.00001  -0.00000  -0.00000  -0.00000  -0.00015  -0.00004   0.00007   0.00000   0.00003   0.00001  -0.00021  -0.00007  -0.00004  -0.00001   0.00011   0.00003   0.00011   0.00003   0.00003   0.00000   0.00006   0.00002  -0.00028  -0.00012   0.00012   0.00004  -0.00001  -0.00000  -0.00015  -0.00005  -0.00002   0.00000
-19.32416   0.02947   0.00919   0.08781   0.02788   0.02260   0.00706   0.02499   0.00917   0.00593   0.00206   0.00515   0.00159   0.01923   0.00574   0.00582   0.00114   0.00070   0.00022  -0.00044  -0.00016  -0.00010  -0.00004   0.00005   0.00001   0.00217   0.00066   0.00147   0.00028  -0.00030  -0.00009  -0.00120  -0.00043   0.00022   0.00008  -0.00073  -0.00023   0.00071   0.00021  -0.00029  -0.00006   0.00030   0.00010   0.00075   0.00030   0.00029   0.00011   0.00002   0.00001   0.00055   0.00017  -0.00007  -0.00001   0.00171   0.00039   0.00199   0.00066  -0.00095  -0.00039  -0.00080  -0.00031  -0.00036  -0.00012   0.00120   0.00039  -0.00008  -0.00001   0.00020   0.00006  -0.00002  -0.00001  -0.00001  -0.00000  -0.00018  -0.00005   0.00036   0.00010   0.00012   0.00002   0.00002   0.00002  -0.00005  -0.00004  -0.00001  -0.00001   0.00000   0.00000   0.00002   0.00001  -0.00000   0.00000  -0.00012  -0.00004  -0.00007  -0.00003   0.00014   0.00005   0.00012   0.00004   0.00010   0.00003   0.00010   0.00002  -0.00111  -0.00069   0.00125   0.00056  -0.00195  -0.00099   0.00041   0.00019   0.00024   0.00009  -0.00115  -0.00044   0.00026   0.00003   0.00003   0.00001   0.00005   0.00002  -0.00001  -0.00001  -0.00000  -0.00000  -0.00012  -0.00005   0.00007   0.00001   0.00003   0.00001  -0.00018  -0.00008  -0.00003  -0.00001   0.00009   0.00003   0.00010   0.00003   0.00003   0.00000   0.00005   0.00003  -0.00022  -0.00013   0.00009   0.00005  -0.00001  -0.00000  -0.00012  -0.00005  -0.00002  -0.00000
-19.27409   0.02537   0.01046   0.07528   0.03165   0.01954   0.00804   0.02024   0.01018   0.00487   0.00230   0.00440   0.00181   0.01681   0.00659   0.00573   0.00143   0.00060   0.00025  -0.00036  -0.00018  -0.00009  -0.00004   0.00004   0.00002   0.00190   0.00075   0.00145   0.00036  -0.00026  -0.00011  -0.00098  -0.00048   0.00018   0.00008  -0.00063  -0.00026   0.00063   0.00024  -0.00028  -0.00007   0.00025   0.00011   0.00059   0.00033   0.00023   0.00012   0.00002   0.00001   0.00046   0.00019  -0.00007  -0.00002   0.00158   0.00047   0.00167   0.00074  -0.00075  -0.00042  -0.00064  -0.00034  -0.00030  -0.00014   0.00103   0.00044  -0.00008  -0.00002   0.00018   0.00007  -0.00001  -0.00001  -0.00001  -0.00000  -0.00015  -0.00005   0.00031   0.00011   0.00012   0.00003   0.00001   0.00002  -0.00003  -0.00004  -0.00000  -0.00001  -0.00000   0.00000   0.00000   0.00001  -0.00000   0.00000  -0.00010  -0.00004  -0.00006  -0.00003   0.00011   0.00006   0.00010   0.00004   0.00009   0.00004   0.00010   0.00002  -0.00075  -0.00073   0.00092   0.00060  -0.00141  -0.00106   0.00027   0.00021   0.00013   0.00009  -0.00080  -0.00048   0.00024   0.00005   0.00002   0.00001   0.00004   0.00003  -0.00001  -0.00001  -0.00000  -0.00000  -0.00009  -0.00005   0.00007   0.00001   0.00002   0.00001  -0.00014  -0.00009  -0.00003  -0.00002   0.00007   0.00003   0.00008   0.00004   0.00003   0.00001   0.00003   0.00003  -0.00015  -0.00013   0.00005   0.00005  -0.00000  -0.00000  -0.00008  -0.00006  -0.00002  -0.00000
-19.22403   0.02005   0.01147   0.05924   0.03462   0.01550   0.00882   0.01499   0.01093   0.00365   0.00249   0.00344   0.00198   0.01351   0.00726   0.00512   0.00168   0.00048   0.00028  -0.00026  -0.00020  -0.00006  -0.00004   0.00003   0.00002   0.00152   0.00083   0.00129   0.00042  -0.00021  -0.00012  -0.00073  -0.00051   0.00014   0.00009  -0.00051  -0.00029   0.00051   0.00027  -0.00025  -0.00008   0.00019   0.00012   0.00043   0.00035   0.00017   0.00013   0.00001   0.00001   0.00036   0.00021  -0.00006  -0.00002   0.00134   0.00054   0.00129   0.00081  -0.00055  -0.00045  -0.00047  -0.00037  -0.00023  -0.00015   0.00081   0.00048  -0.00007  -0.00002   0.00014   0.00008  -0.00001  -0.00001  -0.00001  -0.00001  -0.00011  -0.00006   0.00024   0.00012   0.00011   0.00004  -0.00000   0.00002  -0.00002  -0.00004   0.00000  -0.00001  -0.00001   0.00000  -0.00001   0.00001  -0.00000   0.00000  -0.00008  -0.00004  -0.00004  -0.00003   0.00009   0.00006   0.00008   0.00005   0.00007   0.00004   0.00009   0.00002  -0.00042  -0.00075   0.00061   0.00063  -0.00090  -0.00110   0.00012   0.00021   0.00001   0.00010  -0.00044  -0.00050   0.00021   0.00006   0.00001   0.00001   0.00002   0.00003  -0.00000  -0.00001  -0.00000  -0.00000  -0.00006  -0.00005   0.00006   0.00001   0.00002   0.00001  -0.00009  -0.00009  -0.00002  -0.00002   0.00004   0.00004   0.00006   0.00004   0.00002   0.00001   0.00002   0.00003  -0.00009  -0.00014   0.00002   0.00005   0.00000  -0.00000  -0.00004  -0.00006  -0.00001  -0.00000