 vasp.5.4.4.18Apr17-6-g9f103f2a35 (build Oct 20 2021 08:33:53) complex           
 executed on             LinuxGNU date 2024.05.03  22:19:56
 running on   32 total cores
 distrk:  each k-point on   32 cores,    1 groups
 distr:  one band on NCORES_PER_BAND=   4 cores,    8 groups


--------------------------------------------------------------------------------------------------------


 INCAR:
 POTCAR:    PAW_PBE C 08Apr2002                   
 POTCAR:    PAW_PBE H 15Jun2001                   
 POTCAR:    PAW_PBE O 08Apr2002                   
 POTCAR:    PAW_PBE Si 05Jan2001                  
 POTCAR:    PAW_PBE W 08Apr2002                   
 POTCAR:    PAW_PBE C 08Apr2002                   
   VRHFIN =C: s2p2                                                              
   LEXCH  = PE                                                                  
   EATOM  =   147.1560 eV,   10.8157 Ry                                         
                                                                                
   TITEL  = PAW_PBE C 08Apr2002                                                 
   LULTRA =        F    use ultrasoft PP ?                                      
   IUNSCR =        1    unscreen: 0-lin 1-nonlin 2-no                           
   RPACOR =    1.200    partial core radius                                     
   POMASS =   12.011; ZVAL   =    4.000    mass and valenz                      
   RCORE  =    1.500    outmost cutoff radius                                   
   RWIGS  =    1.630; RWIGS  =    0.863    wigner-seitz radius (au A)           
   ENMAX  =  400.000; ENMIN  =  300.000 eV                                      
   ICORE  =        2    local potential                                         
   LCOR   =        T    correct aug charges                                     
   LPAW   =        T    paw PP                                                  
   EAUG   =  644.873                                                            
   DEXC   =    0.000                                                            
   RMAX   =    1.529    core radius for proj-oper                               
   RAUG   =    1.300    factor for augmentation sphere                          
   RDEP   =    1.501    radius for radial grids                                 
   RDEPT  =    1.300    core radius for aug-charge                              
                                                                                
   Atomic configuration                                                         
    4 entries                                                                   
     n  l   j            E        occ.                                          
     1  0  0.50      -273.3789   2.0000                                         
     2  0  0.50       -13.7508   2.0000                                         
     2  1  0.50        -5.2854   2.0000                                         
     3  2  1.50        -5.4423   0.0000                                         
   Description                                                                  
     l       E           TYP  RCUT    TYP  RCUT                                 
     0    -13.7508458     23  1.200                                             
     0     -8.2022199     23  1.200                                             
     1     -5.2854383     23  1.500                                             
     1     34.0145650     23  1.500                                             
     2     -5.4423304      7  1.500                                             
  local pseudopotential read in
  partial core-charges read in
  partial kinetic energy density read in
  atomic valenz-charges read in
  non local Contribution for L=           0  read in
    real space projection operators read in
  non local Contribution for L=           0  read in
    real space projection operators read in
  non local Contribution for L=           1  read in
    real space projection operators read in
  non local Contribution for L=           1  read in
    real space projection operators read in
    PAW grid and wavefunctions read in

   number of l-projection  operators is LMAX  =           4
   number of lm-projection operators is LMMAX =           8

 POTCAR:    PAW_PBE H 15Jun2001                   
   VRHFIN =H: ultrasoft test                                                    
   LEXCH  = PE                                                                  
   EATOM  =    12.4884 eV,    0.9179 Ry                                         
                                                                                
   TITEL  = PAW_PBE H 15Jun2001                                                 
   LULTRA =        F    use ultrasoft PP ?                                      
   IUNSCR =        0    unscreen: 0-lin 1-nonlin 2-no                           
   RPACOR =    0.000    partial core radius                                     
   POMASS =    1.000; ZVAL   =    1.000    mass and valenz                      
   RCORE  =    1.100    outmost cutoff radius                                   
   RWIGS  =    0.700; RWIGS  =    0.370    wigner-seitz radius (au A)           
   ENMAX  =  250.000; ENMIN  =  200.000 eV                                      
   RCLOC  =    0.701    cutoff for local pot                                    
   LCOR   =        T    correct aug charges                                     
   LPAW   =        T    paw PP                                                  
   EAUG   =  400.000                                                            
   RMAX   =    1.123    core radius for proj-oper                               
   RAUG   =    1.200    factor for augmentation sphere                          
   RDEP   =    1.112    radius for radial grids                                 
   RDEPT  =    0.926    core radius for aug-charge                              
                                                                                
   Atomic configuration                                                         
    2 entries                                                                   
     n  l   j            E        occ.                                          
     1  0  0.50        -6.4927   1.0000                                         
     2  1  0.50        -3.4015   0.0000                                         
   Description                                                                  
     l       E           TYP  RCUT    TYP  RCUT                                 
     0     -6.4927494     23  1.100                                             
     0      6.8029130     23  1.100                                             
     1     -4.0817478     23  1.100                                             
  local pseudopotential read in
  atomic valenz-charges read in
  non local Contribution for L=           0  read in
    real space projection operators read in
  non local Contribution for L=           0  read in
    real space projection operators read in
  non local Contribution for L=           1  read in
    real space projection operators read in
    PAW grid and wavefunctions read in

   number of l-projection  operators is LMAX  =           3
   number of lm-projection operators is LMMAX =           5

 POTCAR:    PAW_PBE O 08Apr2002                   
   VRHFIN =O: s2p4                                                              
   LEXCH  = PE                                                                  
   EATOM  =   432.3788 eV,   31.7789 Ry                                         
                                                                                
   TITEL  = PAW_PBE O 08Apr2002                                                 
   LULTRA =        F    use ultrasoft PP ?                                      
   IUNSCR =        1    unscreen: 0-lin 1-nonlin 2-no                           
   RPACOR =    1.200    partial core radius                                     
   POMASS =   16.000; ZVAL   =    6.000    mass and valenz                      
   RCORE  =    1.520    outmost cutoff radius                                   
   RWIGS  =    1.550; RWIGS  =    0.820    wigner-seitz radius (au A)           
   ENMAX  =  400.000; ENMIN  =  300.000 eV                                      
   ICORE  =        2    local potential                                         
   LCOR   =        T    correct aug charges                                     
   LPAW   =        T    paw PP                                                  
   EAUG   =  605.392                                                            
   DEXC   =    0.000                                                            
   RMAX   =    1.553    core radius for proj-oper                               
   RAUG   =    1.300    factor for augmentation sphere                          
   RDEP   =    1.550    radius for radial grids                                 
   RDEPT  =    1.329    core radius for aug-charge                              
                                                                                
   Atomic configuration                                                         
    4 entries                                                                   
     n  l   j            E        occ.                                          
     1  0  0.50      -514.6923   2.0000                                         
     2  0  0.50       -23.9615   2.0000                                         
     2  1  0.50        -9.0305   4.0000                                         
     3  2  1.50        -9.5241   0.0000                                         
   Description                                                                  
     l       E           TYP  RCUT    TYP  RCUT                                 
     0    -23.9615318     23  1.200                                             
     0     -9.5240782     23  1.200                                             
     1     -9.0304911     23  1.520                                             
     1      8.1634956     23  1.520                                             
     2     -9.5240782      7  1.500                                             
  local pseudopotential read in
  partial core-charges read in
  partial kinetic energy density read in
  kinetic energy density of atom read in
  atomic valenz-charges read in
  non local Contribution for L=           0  read in
    real space projection operators read in
  non local Contribution for L=           0  read in
    real space projection operators read in
  non local Contribution for L=           1  read in
    real space projection operators read in
  non local Contribution for L=           1  read in
    real space projection operators read in
    PAW grid and wavefunctions read in

   number of l-projection  operators is LMAX  =           4
   number of lm-projection operators is LMMAX =           8

 POTCAR:    PAW_PBE Si 05Jan2001                  
   VRHFIN =Si: s2p2                                                             
   LEXCH  = PE                                                                  
   EATOM  =   103.0669 eV,    7.5752 Ry                                         
                                                                                
   TITEL  = PAW_PBE Si 05Jan2001                                                
   LULTRA =        F    use ultrasoft PP ?                                      
   IUNSCR =        1    unscreen: 0-lin 1-nonlin 2-no                           
   RPACOR =    1.500    partial core radius                                     
   POMASS =   28.085; ZVAL   =    4.000    mass and valenz                      
   RCORE  =    1.900    outmost cutoff radius                                   
   RWIGS  =    2.480; RWIGS  =    1.312    wigner-seitz radius (au A)           
   ENMAX  =  245.345; ENMIN  =  184.009 eV                                      
   ICORE  =        2    local potential                                         
   LCOR   =        T    correct aug charges                                     
   LPAW   =        T    paw PP                                                  
   EAUG   =  322.069                                                            
   DEXC   =    0.000                                                            
   RMAX   =    1.950    core radius for proj-oper                               
   RAUG   =    1.300    factor for augmentation sphere                          
   RDEP   =    1.993    radius for radial grids                                 
   RDEPT  =    1.837    core radius for aug-charge                              
                                                                                
   Atomic configuration                                                         
    6 entries                                                                   
     n  l   j            E        occ.                                          
     1  0  0.50     -1785.8828   2.0000                                         
     2  0  0.50      -139.4969   2.0000                                         
     2  1  1.50       -95.5546   6.0000                                         
     3  0  0.50       -10.8127   2.0000                                         
     3  1  0.50        -4.0811   2.0000                                         
     3  2  1.50        -4.0817   0.0000                                         
   Description                                                                  
     l       E           TYP  RCUT    TYP  RCUT                                 
     0    -10.8127223     23  1.900                                             
     0     -7.6451159     23  1.900                                             
     1     -4.0811372     23  1.900                                             
     1      2.4879257     23  1.900                                             
     2     -4.0817478      7  1.900                                             
  local pseudopotential read in
  partial core-charges read in
  partial kinetic energy density read in
  atomic valenz-charges read in
  non local Contribution for L=           0  read in
    real space projection operators read in
  non local Contribution for L=           0  read in
    real space projection operators read in
  non local Contribution for L=           1  read in
    real space projection operators read in
  non local Contribution for L=           1  read in
    real space projection operators read in
    PAW grid and wavefunctions read in

   number of l-projection  operators is LMAX  =           4
   number of lm-projection operators is LMMAX =           8

 POTCAR:    PAW_PBE W 08Apr2002                   
   VRHFIN =W : 6s5d                                                             
   LEXCH  = PE                                                                  
   EATOM  =   204.6103 eV,   15.0384 Ry                                         
                                                                                
   TITEL  = PAW_PBE W 08Apr2002                                                 
   LULTRA =        F    use ultrasoft PP ?                                      
   IUNSCR =        1    unscreen: 0-lin 1-nonlin 2-no                           
   RPACOR =    2.330    partial core radius                                     
   POMASS =  183.850; ZVAL   =    6.000    mass and valenz                      
   RCORE  =    2.750    outmost cutoff radius                                   
   RWIGS  =    2.750; RWIGS  =    1.455    wigner-seitz radius (au A)           
   ENMAX  =  223.057; ENMIN  =  167.293 eV                                      
   RCLOC  =    2.147    cutoff for local pot                                    
   LCOR   =        T    correct aug charges                                     
   LPAW   =        T    paw PP                                                  
   EAUG   =  373.438                                                            
   DEXC   =    0.000                                                            
   RMAX   =    2.801    core radius for proj-oper                               
   RAUG   =    1.300    factor for augmentation sphere                          
   RDEP   =    2.886    radius for radial grids                                 
   RDEPT  =    2.230    core radius for aug-charge                              
                                                                                
   Atomic configuration                                                         
   16 entries                                                                   
     n  l   j            E        occ.                                          
     1  0  0.50    -69465.5836   2.0000                                         
     2  0  0.50    -11986.2642   2.0000                                         
     2  1  1.50    -10479.8616   6.0000                                         
     3  0  0.50     -2759.0758   2.0000                                         
     3  1  1.50     -2313.1857   6.0000                                         
     3  2  2.50     -1801.1185  10.0000                                         
     4  0  0.50      -567.6791   2.0000                                         
     4  1  1.50      -421.4694   6.0000                                         
     4  2  2.50      -236.3473  10.0000                                         
     4  3  3.50       -31.2666  14.0000                                         
     5  0  0.50       -77.1085   2.0000                                         
     5  1  1.50       -41.3856   6.0000                                         
     5  2  2.50        -3.3185   5.0000                                         
     6  0  0.50        -5.1438   1.0000                                         
     6  1  0.50        -3.8096   0.0000                                         
     5  3  2.50        -1.3606   0.0000                                         
   Description                                                                  
     l       E           TYP  RCUT    TYP  RCUT                                 
     2     -3.3185288     23  2.500                                             
     2     -1.5965414     23  2.500                                             
     0     -5.1438054     23  2.500                                             
     0      4.9117504     23  2.500                                             
     1      2.7211652     23  2.750                                             
     1     27.2116520     23  2.750                                             
  local pseudopotential read in
  partial core-charges read in
  partial kinetic energy density read in
  atomic valenz-charges read in
  non local Contribution for L=           2  read in
    real space projection operators read in
  non local Contribution for L=           2  read in
    real space projection operators read in
  non local Contribution for L=           0  read in
    real space projection operators read in
  non local Contribution for L=           0  read in
    real space projection operators read in
  non local Contribution for L=           1  read in
    real space projection operators read in
  non local Contribution for L=           1  read in
    real space projection operators read in
    PAW grid and wavefunctions read in

   number of l-projection  operators is LMAX  =           6
   number of lm-projection operators is LMMAX =          18

 Optimization of the real space projectors (new method)

 maximal supplied QI-value         = 25.13
 optimisation between [QCUT,QGAM] = [ 11.31, 22.87] = [ 35.82,146.48] Ry 
 Optimized for a Real-space Cutoff    1.00 Angstroem

   l    n(q)    QCUT    max X(q) W(low)/X(q) W(high)/X(q)  e(spline) 
   0      7    11.310   115.676    0.43E-03    0.13E-02    0.19E-06
   0      7    11.310    87.132    0.43E-03    0.13E-02    0.18E-06
   1      6    11.310     4.429    0.42E-03    0.74E-03    0.11E-06
   1      6    11.310     2.733    0.34E-03    0.55E-03    0.92E-07
 Optimization of the real space projectors (new method)

 maximal supplied QI-value         = 34.20
 optimisation between [QCUT,QGAM] = [ 11.29, 22.57] = [ 35.68,142.71] Ry 
 Optimized for a Real-space Cutoff    1.16 Angstroem

   l    n(q)    QCUT    max X(q) W(low)/X(q) W(high)/X(q)  e(spline) 
   0      8    11.287    19.460    0.40E-03    0.73E-03    0.16E-06
   0      8    11.287    12.209    0.38E-03    0.70E-03    0.15E-06
   1      7    11.287     4.655    0.22E-03    0.25E-04    0.22E-06
 Optimization of the real space projectors (new method)

 maximal supplied QI-value         = 24.76
 optimisation between [QCUT,QGAM] = [ 11.39, 22.77] = [ 36.31,145.25] Ry 
 Optimized for a Real-space Cutoff    1.00 Angstroem

   l    n(q)    QCUT    max X(q) W(low)/X(q) W(high)/X(q)  e(spline) 
   0      7    11.387    20.381    0.39E-03    0.13E-02    0.15E-06
   0      7    11.387    15.268    0.42E-03    0.14E-02    0.17E-06
   1      6    11.387     5.964    0.41E-03    0.11E-02    0.17E-06
   1      6    11.387     5.382    0.39E-03    0.87E-03    0.15E-06
 Optimization of the real space projectors (new method)

 maximal supplied QI-value         = 19.84
 optimisation between [QCUT,QGAM] = [ 11.31, 22.82] = [ 35.82,145.81] Ry 
 Optimized for a Real-space Cutoff    1.16 Angstroem

   l    n(q)    QCUT    max X(q) W(low)/X(q) W(high)/X(q)  e(spline) 
   0      8    11.310   159.560    0.27E-03    0.30E-03    0.39E-07
   0      8    11.310   115.863    0.27E-03    0.30E-03    0.38E-07
   1      7    11.310    88.339    0.28E-03    0.28E-03    0.77E-07
   1      7    11.310    48.592    0.27E-03    0.27E-03    0.74E-07
 Optimization of the real space projectors (new method)

 maximal supplied QI-value         = 13.61
 optimisation between [QCUT,QGAM] = [ 11.43, 22.86] = [ 36.58,146.31] Ry 
 Optimized for a Real-space Cutoff    1.56 Angstroem

   l    n(q)    QCUT    max X(q) W(low)/X(q) W(high)/X(q)  e(spline) 
   2     10    11.429   130.855    0.22E-03    0.64E-03    0.11E-05
   2     10    11.429   114.007    0.22E-03    0.64E-03    0.11E-05
   0     11    11.429    84.709    0.39E-04    0.67E-04    0.23E-06
   0     11    11.429    49.163    0.35E-04    0.62E-04    0.21E-06
   1     10    11.429    15.765    0.84E-04    0.15E-03    0.24E-06
   1     10    11.429    10.638    0.58E-04    0.12E-03    0.19E-06

 ----------------------------------------------------------------------------- 
|                                                                             |
|  ADVICE TO THIS USER RUNNING 'VASP/VAMP'   (HEAR YOUR MASTER'S VOICE ...):  |
|                                                                             |
|      You enforced a specific xc-type in the INCAR file,                     |
|      a different type was found on the POTCAR file                          |
|          I HOPE YOU KNOW, WHAT YOU ARE  DOING                               |
|                                                                             |
 ----------------------------------------------------------------------------- 

  PAW_PBE C 08Apr2002                   :
 energy of atom  1       EATOM= -147.1560
 kinetic energy error for atom=    0.0076 (will be added to EATOM!!)
  PAW_PBE H 15Jun2001                   :
 energy of atom  2       EATOM=  -12.4884
 kinetic energy error for atom=    0.0020 (will be added to EATOM!!)
  PAW_PBE O 08Apr2002                   :
 energy of atom  3       EATOM= -432.3788
 kinetic energy error for atom=    0.0224 (will be added to EATOM!!)
  PAW_PBE Si 05Jan2001                  :
 energy of atom  4       EATOM= -103.0669
 kinetic energy error for atom=    0.0006 (will be added to EATOM!!)
  PAW_PBE W 08Apr2002                   :
 energy of atom  5       EATOM= -204.6103
 kinetic energy error for atom=    0.0017 (will be added to EATOM!!)


 POSCAR:  C  H  O Si  W                          
  positions in direct lattice
  velocities in cartesian coordinates
 exchange correlation table for  LEXCH =        9
   RHO(1)=    0.500       N(1)  =     2000
   RHO(2)=  100.500       N(2)  =     4000

 VTST: version 3.2, (02/03/18)

 CHAIN: initializing optimizer
 
 OPT: Using VASP QUASI-newton optimizer
 CHAIN: Read ICHAIN            0

 POSCAR:  C  H  O Si  W                          
  positions in direct lattice
  velocities in cartesian coordinates



--------------------------------------------------------------------------------------------------------


 ion  position               nearest neighbor table
   1  0.441  0.398  0.705-  49 1.10   2 1.52   4 1.64 276 2.07
   2  0.395  0.374  0.742-  52 1.10  51 1.10  50 1.10   1 1.52
   3  0.549  0.454  0.727-  56 1.09  53 1.09   4 1.60 276 2.08
   4  0.507  0.384  0.724-  54 1.09  55 1.09   3 1.60   1 1.64 276 2.37
   5  0.762  0.102  0.652- 131 0.97
   6  0.926  0.279  0.356-  79 0.98
   7  0.793  0.207  0.373- 114 0.97
   8  0.975  0.944  0.325- 123 0.97
   9  0.626  0.963  0.375- 125 0.98
  10  0.821  0.995  0.369- 143 0.97
  11  0.750  0.141  0.458- 181 0.98
  12  0.915  0.249  0.510- 186 0.97
  13  0.583  0.304  0.306- 191 0.97
  14  0.892  0.335  0.616-  97 0.98
  15  0.608  0.367  0.608- 142 0.97
  16  0.594  0.870  0.578- 184 0.99
  17  0.033  0.337  0.654- 190 0.97
  18  0.935  0.420  0.454- 179 0.98
  19  0.746  0.530  0.422-  93 1.00
  20  0.803  0.386  0.638- 171 0.97
  21  0.591  0.569  0.378- 105 0.99
  22  0.718  0.646  0.383- 128 0.99
  23  0.841  0.542  0.420- 134 0.98
  24  0.005  0.604  0.358- 139 0.97
  25  0.828  0.712  0.468- 180 0.99
  26  0.879  0.599  0.721-  59 0.97
  27  0.520  0.986  0.422- 141 0.99
  28  0.223  0.980  0.393- 182 1.00
  29  0.216  0.238  0.319- 197 0.99
  30  0.158  0.330  0.279- 188 0.97
  31  0.342  0.156  0.331- 189 0.98
  32  0.223  0.046  0.323- 196 0.97
  33  0.511  0.827  0.547- 199 0.97
  34  0.362  0.224  0.647-  84 0.97
  35  0.244  0.095  0.599- 135 0.98
  36  0.315  0.487  0.442-  58 0.99
  37  0.409  0.439  0.406- 147 0.98
  38  0.398  0.793  0.389- 185 0.97
  39  0.244  0.655  0.294- 193 0.97
  40  0.312  0.418  0.369- 194 0.98
  41  0.405  0.584  0.339- 195 0.97
  42  0.139  0.488  0.352- 187 0.98
  43  0.593  0.698  0.352-  88 0.97
  44  0.469  0.861  0.444- 198 0.99
  45  0.122  0.327  0.614- 107 0.97
  46  0.074  0.665  0.646- 138 0.97
  47  0.236  0.400  0.682- 183 0.97
  48  0.249  0.816  0.670- 192 0.97
  49  0.436  0.372  0.668-   1 1.10
  50  0.396  0.313  0.747-   2 1.10
  51  0.353  0.388  0.726-   2 1.10
  52  0.400  0.402  0.777-   2 1.10
  53  0.584  0.450  0.700-   3 1.09
  54  0.525  0.345  0.698-   4 1.09
  55  0.502  0.363  0.762-   4 1.09
  56  0.563  0.466  0.765-   3 1.09
  57  0.369  0.648  0.439- 230 1.66 265 1.68
  58  0.347  0.504  0.420-  36 0.99 265 1.67
  59  0.861  0.566  0.697-  26 0.97 236 1.64
  60  0.348  0.960  0.531- 241 1.68 274 1.69
  61  0.033  0.932  0.529- 256 1.63 267 1.66
  62  0.636  0.079  0.489- 234 1.60 223 1.65
  63  0.069  0.052  0.395- 222 1.64 214 1.65
  64  0.452  0.130  0.421- 239 1.65 220 1.65
  65  0.806  0.214  0.483- 238 1.67 235 1.69
  66  0.974  0.182  0.599- 216 1.63 246 1.65
  67  0.275  0.299  0.449- 262 1.65 272 1.66
  68  0.556  0.775  0.442- 243 1.51 270 1.66
  69  0.391  0.975  0.620- 260 1.65 274 1.66
  70  0.178  0.350  0.405- 262 1.66 237 1.67
  71  0.867  0.684  0.638- 240 1.64 236 1.64
  72  0.866  0.967  0.467- 232 1.60 247 1.65
  73  0.301  0.761  0.458- 230 1.65 244 1.67
  74  0.422  0.261  0.380- 239 1.67 259 1.67
  75  0.811  0.465  0.520- 266 1.63 213 1.64
  76  0.983  0.072  0.521- 256 1.68 216 1.69
  77  0.505  0.470  0.632- 275 1.63 276 2.09
  78  0.035  0.920  0.429- 267 1.64 214 1.65
  79  0.963  0.303  0.351-   6 0.98 215 1.65
  80  0.070  0.336  0.376- 215 1.64 237 1.65
  81  0.208  0.729  0.395- 244 1.66 254 1.67
  82  0.039  0.419  0.499- 269 1.64 242 1.65
  83  0.240  0.287  0.587- 250 1.63 227 1.63
  84  0.398  0.197  0.645-  34 0.97 221 1.65
  85  0.455  0.567  0.576- 252 1.67 275 1.69
  86  0.910  0.749  0.558- 240 1.64 219 1.66
  87  0.869  0.108  0.442- 247 1.64 235 1.65
  88  0.573  0.667  0.376-  43 0.97 243 1.68
  89  0.142  0.159  0.376- 268 1.65 222 1.65
  90  0.351  0.766  0.607- 212 1.62 253 1.64
  91  0.911  0.845  0.483- 232 1.62 219 1.66
  92  0.061  0.537  0.442- 269 1.66 211 1.67
  93  0.708  0.555  0.420-  19 1.00 225 1.67
  94  0.075  0.817  0.483- 267 1.50 249 1.65
  95  0.700  0.828  0.433- 224 1.53 257 1.65
  96  0.730  0.049  0.543- 223 1.64 258 1.64
  97  0.920  0.303  0.633-  14 0.98 246 1.63
  98  0.735  0.852  0.613- 231 1.66 228 1.68
  99  0.625  0.527  0.486- 233 1.59 225 1.68
 100  0.557  0.630  0.467- 243 1.52 233 1.64
 101  0.426  0.248  0.556- 221 1.68 264 1.69
 102  0.978  0.728  0.477- 249 1.65 219 1.65
 103  0.654  0.594  0.633- 271 1.64 217 1.67
 104  0.397  0.748  0.515- 230 1.65 212 1.65
 105  0.603  0.518  0.386-  21 0.99 225 1.65
 106  0.720  0.630  0.557- 255 1.63 271 1.64
 107  0.148  0.367  0.622-  45 0.97 227 1.64
 108  0.066  0.548  0.542- 269 1.63 273 1.64
 109  0.818  0.884  0.536- 232 1.65 231 1.67
 110  0.828  0.355  0.452- 238 1.65 213 1.65
 111  0.528  0.297  0.531- 264 1.62 245 1.63
 112  0.737  0.499  0.596- 271 1.66 266 1.66
 113  0.557  0.172  0.395- 251 1.59 220 1.64
 114  0.806  0.256  0.383-   7 0.97 238 1.67
 115  0.237  0.953  0.508- 241 1.58 226 1.67
 116  0.693  0.775  0.542- 255 1.63 228 1.64
 117  0.923  0.950  0.553- 256 1.65 232 1.66
 118  0.526  0.318  0.399- 251 1.45 259 1.66
 119  0.467  0.993  0.547- 260 1.69 261 1.69
 120  0.838  0.095  0.540- 235 1.66 258 1.66
 121  0.538  0.116  0.486- 234 1.60 220 1.67
 122  0.350  0.187  0.440- 272 1.63 239 1.65
 123  0.012  0.962  0.335-   8 0.97 214 1.65
 124  0.450  0.596  0.671- 252 1.65 276 1.95
 125  0.655  0.925  0.379-   9 0.98 224 1.66
 126  0.076  0.686  0.436- 211 1.65 249 1.66
 127  0.454  0.405  0.553- 264 1.69 275 1.70
 128  0.719  0.700  0.380-  22 0.99 257 1.65
 129  0.453  0.708  0.598- 212 1.62 252 1.64
 130  0.753  0.709  0.476- 255 1.63 257 1.69
 131  0.779  0.120  0.621-   5 0.97 258 1.64
 132  0.993  0.308  0.448- 242 1.66 215 1.68
 133  0.537  0.507  0.535- 233 1.65 275 1.65
 134  0.817  0.499  0.423-  23 0.98 213 1.69
 135  0.238  0.147  0.606-  35 0.98 250 1.63
 136  0.204  0.831  0.471- 226 1.50 244 1.63
 137  0.240  0.559  0.523- 229 1.65 218 1.66
 138  0.061  0.625  0.624-  46 0.97 273 1.64
 139  0.046  0.602  0.354-  24 0.97 211 1.65
 140  0.801  0.978  0.605- 231 1.66 258 1.68
 141  0.538  0.028  0.405-  27 0.99 220 1.66
 142  0.606  0.314  0.604-  15 0.97 245 1.65
 143  0.862  0.004  0.369-  10 0.97 247 1.66
 144  0.095  0.149  0.467- 248 1.62 222 1.65
 145  0.171  0.204  0.532- 248 1.61 250 1.63
 146  0.641  0.704  0.455- 243 1.65 257 1.66
 147  0.437  0.410  0.386-  37 0.98 259 1.66
 148  0.574  0.059  0.571- 261 1.62 234 1.65
 149  0.151  0.593  0.389- 254 1.68 211 1.68
 150  0.268  0.602  0.392- 265 1.65 254 1.67
 151  0.440  0.322  0.470- 264 1.65 259 1.69
 152  0.238  0.159  0.430- 268 1.65 272 1.67
 153  0.073  0.149  0.562- 248 1.64 216 1.64
 154  0.845  0.545  0.600- 266 1.66 236 1.66
 155  0.621  0.280  0.411- 263 1.65 251 1.66
 156  0.603  0.892  0.467- 270 1.29 224 1.67
 157  0.031  0.195  0.389- 215 1.66 222 1.66
 158  0.608  0.195  0.548- 234 1.62 245 1.63
 159  0.133  0.938  0.479- 267 1.65 226 1.66
 160  0.080  0.280  0.512- 242 1.64 248 1.65
 161  0.372  0.107  0.569- 274 1.64 221 1.69
 162  0.066  0.696  0.536- 249 1.63 273 1.63
 163  0.666  0.415  0.430- 225 1.65 263 1.65
 164  0.800  0.729  0.564- 255 1.61 240 1.63
 165  0.704  0.957  0.470- 223 1.65 224 1.66
 166  0.599  0.636  0.553- 233 1.63 217 1.63
 167  0.723  0.294  0.452- 238 1.63 263 1.64
 168  0.977  0.314  0.547- 242 1.64 246 1.67
 169  0.158  0.630  0.571- 229 1.63 273 1.65
 170  0.633  0.327  0.508- 245 1.62 263 1.65
 171  0.821  0.397  0.606-  20 0.97 266 1.66
 172  0.959  0.027  0.417- 247 1.64 214 1.65
 173  0.282  0.196  0.519- 272 1.63 250 1.65
 174  0.249  0.443  0.461- 218 1.66 262 1.71
 175  0.273  0.851  0.569- 241 1.64 253 1.65
 176  0.204  0.686  0.487- 229 1.63 244 1.66
 177  0.147  0.476  0.493- 218 1.63 269 1.65
 178  0.225  0.424  0.557- 218 1.61 227 1.63
 179  0.911  0.453  0.474-  18 0.98 213 1.65
 180  0.870  0.705  0.464-  25 0.99 219 1.65
 181  0.738  0.093  0.445-  11 0.98 223 1.66
 182  0.222  0.930  0.408-  28 1.00 226 1.64
 183  0.254  0.401  0.650-  47 0.97 227 1.65
 184  0.631  0.882  0.594-  16 0.99 228 1.62
 185  0.410  0.789  0.423-  38 0.97 230 1.68
 186  0.918  0.196  0.508-  12 0.97 235 1.65
 187  0.133  0.444  0.332-  42 0.98 237 1.65
 188  0.155  0.304  0.311-  30 0.97 237 1.69
 189  0.373  0.131  0.348-  31 0.98 239 1.66
 190  0.035  0.293  0.633-  17 0.97 246 1.66
 191  0.573  0.257  0.320-  13 0.97 251 1.66
 192  0.246  0.772  0.650-  48 0.97 253 1.64
 193  0.207  0.648  0.310-  39 0.97 254 1.65
 194  0.275  0.392  0.367-  40 0.98 262 1.66
 195  0.365  0.598  0.342-  41 0.97 265 1.67
 196  0.226  0.056  0.358-  32 0.97 268 1.69
 197  0.241  0.196  0.329-  29 0.99 268 1.66
 198  0.501  0.892  0.455-  44 0.99 270 1.60
 199  0.550  0.828  0.534-  33 0.97 270 1.67
 200  0.544  0.646  0.634- 217 1.64 252 1.68
 201  0.478  0.125  0.597- 221 1.65 261 1.66
 202  0.262  0.695  0.569- 253 1.65 229 1.65
 203  0.442  0.850  0.581- 260 1.65 212 1.68
 204  0.765  0.617  0.650- 271 1.65 236 1.66
 205  0.845  0.832  0.622- 240 1.66 231 1.68
 206  0.640  0.739  0.622- 217 1.67 228 1.70
 207  0.008  0.033  0.603- 216 1.69 256 1.69
 208  0.284  0.003  0.594- 274 1.69 241 1.70
 209  0.502  0.974  0.629- 260 1.69 261 1.70
 210  0.452  0.522  0.761- 276 1.73
 211  0.083  0.606  0.406- 139 1.65 126 1.65  92 1.67 149 1.68 269 3.13
 212  0.409  0.768  0.574- 129 1.62  90 1.62 104 1.65 203 1.68 253 3.05
 213  0.842  0.441  0.468-  75 1.64 110 1.65 179 1.65 134 1.69
 214  0.017  0.990  0.394-  63 1.65 172 1.65  78 1.65 123 1.65 267 3.11 222 3.13
 215  0.015  0.284  0.391-  80 1.64  79 1.65 157 1.66 132 1.68 242 3.11 222 3.11
 216  0.009  0.115  0.572-  66 1.63 153 1.64  76 1.69 207 1.69 256 2.39 248 3.05 246 3.08
 217  0.609  0.657  0.611- 166 1.63 200 1.64 103 1.67 206 1.67 271 2.88 233 3.13
 218  0.214  0.476  0.510- 178 1.61 177 1.63 137 1.66 174 1.66 229 3.10 262 3.14
 219  0.915  0.756  0.496- 102 1.65 180 1.65  86 1.66  91 1.66 232 2.98 240 3.03
 220  0.521  0.110  0.426- 113 1.64  64 1.65 141 1.66 121 1.67 251 3.08 234 3.12
 221  0.418  0.171  0.590-  84 1.65 201 1.65 101 1.68 161 1.69 261 3.13 274 3.14
 222  0.083  0.139  0.407-  63 1.64 144 1.65  89 1.65 157 1.66 215 3.11 214 3.13 268 3.14
 223  0.702  0.045  0.487-  96 1.64 165 1.65  62 1.65 181 1.66 234 3.09 224 3.10 258 3.15
 224  0.665  0.898  0.437-  95 1.53 165 1.66 125 1.66 156 1.67 270 2.83 257 3.06 223 3.10
 225  0.650  0.504  0.430- 105 1.65 163 1.65  93 1.67  99 1.68 233 3.08
 226  0.198  0.912  0.464- 136 1.50 182 1.64 159 1.66 115 1.67 244 3.01 241 3.07 267 3.07
 227  0.215  0.368  0.604-  83 1.63 178 1.63 107 1.64 183 1.65
 228  0.673  0.812  0.595- 184 1.62 116 1.64  98 1.68 206 1.70 255 2.90
 229  0.217  0.642  0.539- 176 1.63 169 1.63 202 1.65 137 1.65 244 3.09 218 3.10 273 3.12
 230  0.369  0.735  0.459- 104 1.65  73 1.65  57 1.66 185 1.68
 231  0.797  0.888  0.595- 140 1.66  98 1.66 109 1.67 205 1.68 240 2.86 232 2.99
 232  0.879  0.912  0.512-  72 1.60  91 1.62 109 1.65 117 1.66 219 2.98 231 2.99 256 3.05 247 3.14

 233  0.577  0.575  0.512-  99 1.59 166 1.63 100 1.64 133 1.65 243 3.01 225 3.08 217 3.13
 234  0.590  0.115  0.525-  62 1.60 121 1.60 158 1.62 148 1.65 261 2.85 223 3.09 245 3.11 220 3.12

 235  0.858  0.152  0.495- 186 1.65  87 1.65 120 1.66  65 1.69 247 3.07 238 3.15
 236  0.835  0.604  0.646-  59 1.64  71 1.64 204 1.66 154 1.66 271 2.93 240 3.00 266 3.01
 237  0.134  0.360  0.357- 187 1.65  80 1.65  70 1.67 188 1.69 262 3.11
 238  0.791  0.280  0.442- 167 1.63 110 1.65 114 1.67  65 1.67 235 3.15
 239  0.399  0.177  0.396-  64 1.65 122 1.65 189 1.66  74 1.67 259 3.07
 240  0.856  0.750  0.596- 164 1.63  86 1.64  71 1.64 205 1.66 231 2.86 236 3.00 219 3.03
 241  0.283  0.936  0.550- 115 1.58 175 1.64  60 1.68 208 1.70 274 2.38 226 3.07
 242  0.023  0.330  0.502- 160 1.64 168 1.64  82 1.65 132 1.66 246 3.10 215 3.11 248 3.14
 243  0.575  0.695  0.436-  68 1.51 100 1.52 146 1.65  88 1.68 233 3.01 270 3.06 257 3.10
 244  0.230  0.753  0.452- 136 1.63 176 1.66  81 1.66  73 1.67 254 2.97 226 3.01 229 3.09
 245  0.594  0.283  0.548- 170 1.62 111 1.63 158 1.63 142 1.65 234 3.11 263 3.14
 246  0.976  0.273  0.603-  97 1.63  66 1.65 190 1.66 168 1.67 216 3.08 242 3.10
 247  0.889  0.025  0.424-  87 1.64 172 1.64  72 1.65 143 1.66 235 3.07 232 3.14
 248  0.105  0.195  0.518- 145 1.61 144 1.62 153 1.64 160 1.65 216 3.05 242 3.14
 249  0.048  0.733  0.483- 162 1.63 102 1.65  94 1.65 126 1.66 267 3.05
 250  0.232  0.207  0.561- 135 1.63  83 1.63 145 1.63 173 1.65 272 3.03
 251  0.561  0.258  0.381- 118 1.45 113 1.59 155 1.66 191 1.66 259 2.87 220 3.08
 252  0.476  0.629  0.619- 129 1.64 124 1.65  85 1.67 200 1.68 275 2.91 276 3.18
 253  0.282  0.771  0.598- 192 1.64  90 1.64 202 1.65 175 1.65 212 3.05
 254  0.209  0.643  0.372- 193 1.65 150 1.67  81 1.67 149 1.68 244 2.97
 255  0.740  0.710  0.536- 164 1.61 106 1.63 130 1.63 116 1.63 228 2.90 257 2.91 271 3.07
 256  0.986  0.990  0.550-  61 1.63 117 1.65  76 1.68 207 1.69 216 2.39 232 3.05
 257  0.703  0.737  0.434-  95 1.65 128 1.65 146 1.66 130 1.69 255 2.91 224 3.06 243 3.10
 258  0.788  0.059  0.577-  96 1.64 131 1.64 120 1.66 140 1.68 223 3.15
 259  0.456  0.328  0.409- 147 1.66 118 1.66  74 1.67 151 1.69 251 2.87 239 3.07
 260  0.449  0.938  0.595- 203 1.65  69 1.65 119 1.69 209 1.69 261 2.36 274 2.73
 261  0.508  0.043  0.587- 148 1.62 201 1.66 119 1.69 209 1.70 260 2.36 234 2.85 221 3.13
 262  0.244  0.370  0.421-  67 1.65  70 1.66 194 1.66 174 1.71 237 3.11 218 3.14
 263  0.659  0.330  0.450- 167 1.64 155 1.65 163 1.65 170 1.65 245 3.14
 264  0.461  0.319  0.529- 111 1.62 151 1.65 101 1.69 127 1.69
 265  0.337  0.590  0.399- 150 1.65 195 1.67  58 1.67  57 1.68
 266  0.804  0.477  0.580-  75 1.63 171 1.66 154 1.66 112 1.66 271 2.90 236 3.01
 267  0.069  0.899  0.481-  94 1.50  78 1.64 159 1.65  61 1.66 249 3.05 226 3.07 214 3.11
 268  0.212  0.144  0.374-  89 1.65 152 1.65 197 1.66 196 1.69 272 3.12 222 3.14
 269  0.078  0.494  0.495- 108 1.63  82 1.64 177 1.65  92 1.66 273 3.09 211 3.13
 270  0.558  0.852  0.475- 156 1.29 198 1.60  68 1.66 199 1.67 224 2.83 243 3.06
 271  0.718  0.584  0.610- 106 1.64 103 1.64 204 1.65 112 1.66 217 2.88 266 2.90 236 2.93 255 3.07

 272  0.287  0.210  0.459- 173 1.63 122 1.63  67 1.66 152 1.67 250 3.03 268 3.12
 273  0.088  0.625  0.568- 162 1.63 138 1.64 108 1.64 169 1.65 269 3.09 229 3.12
 274  0.353  0.021  0.579- 161 1.64  69 1.66  60 1.69 208 1.69 241 2.38 260 2.73 221 3.14
 275  0.486  0.483  0.574-  77 1.63 133 1.65  85 1.69 127 1.70 252 2.91
 276  0.475  0.503  0.702- 210 1.73 124 1.95   1 2.07   3 2.08  77 2.09   4 2.37 252 3.18

  LATTYP: Found a simple orthorhombic cell.
 ALAT       =    18.1212369514
 B/A-ratio  =     1.2919258579
 C/A-ratio  =     1.4835282260
  
  Lattice vectors:
  
 A1 = (   0.0000000000, -18.1212369514,   0.0000000000)
 A2 = ( -23.4112945954,   0.0000000000,   0.0000000000)
 A3 = (   0.0000000000,   0.0000000000, -26.8833665073)


Analysis of symmetry for initial positions (statically):
=====================================================================
 Subroutine PRICEL returns:
 Original cell was already a primitive cell.
 

 Routine SETGRP: Setting up the symmetry group for a 
 simple orthorhombic supercell.


 Subroutine GETGRP returns: Found  1 space group operations
 (whereof  1 operations were pure point group operations)
 out of a pool of  8 trial point group operations.


The static configuration has the point symmetry C_1 .


Analysis of symmetry for dynamics (positions and initial velocities):
=====================================================================
 Subroutine PRICEL returns:
 Original cell was already a primitive cell.
 

 Routine SETGRP: Setting up the symmetry group for a 
 simple orthorhombic supercell.


 Subroutine GETGRP returns: Found  1 space group operations
 (whereof  1 operations were pure point group operations)
 out of a pool of  8 trial point group operations.


The dynamic configuration has the point symmetry C_1 .


Analysis of constrained symmetry for selective dynamics:
=====================================================================
 Subroutine PRICEL returns:
 Original cell was already a primitive cell.
 

 Routine SETGRP: Setting up the symmetry group for a 
 simple orthorhombic supercell.


 Subroutine GETGRP returns: Found  1 space group operations
 (whereof  1 operations were pure point group operations)
 out of a pool of  8 trial point group operations.


The constrained configuration has the point symmetry C_1 .


 Subroutine INISYM returns: Found  1 space group operations
 (whereof  1 operations are pure point group operations),
 and found     1 'primitive' translations



 KPOINTS: KPOINTS created by Atomic Simulation Env

Automatic generation of k-mesh.
Space group operators:
 irot       det(A)        alpha          n_x          n_y          n_z        tau_x        tau_y        tau_z
    1     1.000000     0.000000     1.000000     0.000000     0.000000     0.000000     0.000000     0.000000
 
 Subroutine IBZKPT returns following result:
 ===========================================
 
 Found      5 irreducible k-points:
 
 Following reciprocal coordinates:
            Coordinates               Weight
  0.000000  0.000000  0.000000      1.000000
  0.333333  0.000000  0.000000      2.000000
  0.000000  0.333333  0.000000      2.000000
  0.333333  0.333333  0.000000      2.000000
 -0.333333  0.333333  0.000000      2.000000
 
 Following cartesian coordinates:
            Coordinates               Weight
  0.000000  0.000000  0.000000      1.000000
  0.014238  0.000000  0.000000      2.000000
  0.000000  0.018395  0.000000      2.000000
  0.014238  0.018395  0.000000      2.000000
 -0.014238  0.018395  0.000000      2.000000
 


--------------------------------------------------------------------------------------------------------




 Dimension of arrays:
   k-points           NKPTS =      5   k-points in BZ     NKDIM =      5   number of bands    NBANDS=    768
   number of dos      NEDOS =    301   number of ions     NIONS =    276
   non local maximal  LDIM  =      6   non local SUM 2l+1 LMDIM =     18
   total plane-waves  NPLWV = ******
   max r-space proj   IRMAX =   2748   max aug-charges    IRDMAX=   9808
   dimension x,y,z NGX =   128 NGY =  100 NGZ =  150
   dimension x,y,z NGXF=   256 NGYF=  200 NGZF=  300
   support grid    NGXF=   256 NGYF=  200 NGZF=  300
   ions per type =               4  52 154  65   1
   NGX,Y,Z   is equivalent  to a cutoff of   9.09,  9.17,  9.28 a.u.
   NGXF,Y,Z  is equivalent  to a cutoff of  18.18, 18.35, 18.55 a.u.

 SYSTEM =  unknown system                          
 POSCAR =   C  H  O Si  W                          

 Startparameter for this run:
   NWRITE =      2    write-flag & timer
   PREC   = normal    normal or accurate (medium, high low for compatibility)
   ISTART =      0    job   : 0-new  1-cont  2-samecut
   ICHARG =      2    charge: 1-file 2-atom 10-const
   ISPIN  =      1    spin polarized calculation?
   LNONCOLLINEAR =      F non collinear calculations
   LSORBIT =      F    spin-orbit coupling
   INIWAV =      1    electr: 0-lowe 1-rand  2-diag
   LASPH  =      T    aspherical Exc in radial PAW
   METAGGA=      F    non-selfconsistent MetaGGA calc.

 Electronic Relaxation 1
   ENCUT  =  500.0 eV  36.75 Ry    6.06 a.u.  42.68 33.04 49.01*2*pi/ulx,y,z
   ENINI  =  500.0     initial cutoff
   ENAUG  =  644.9 eV  augmentation charge cutoff
   NELM   =     60;   NELMIN=  2; NELMDL=  0     # of ELM steps 
   EDIFF  = 0.1E-03   stopping-criterion for ELM
   LREAL  =      T    real-space projection
   NLSPLINE    = F    spline interpolate recip. space projectors
   LCOMPAT=      F    compatible to vasp.4.4
   GGA_COMPAT  = T    GGA compatible to vasp.4.4-vasp.4.6
   LMAXPAW     = -100 max onsite density
   LMAXMIX     =    2 max onsite mixed and CHGCAR
   VOSKOWN=      0    Vosko Wilk Nusair interpolation
   ROPT   =   -0.00050  -0.00050  -0.00050  -0.00050
   ROPT   =   -0.00050
 Ionic relaxation
   EDIFFG = -.5E-01   stopping-criterion for IOM
   NSW    =    300    number of steps for IOM
   NBLOCK =      1;   KBLOCK =    300    inner block; outer block 
   IBRION =      1    ionic relax: 0-MD 1-quasi-New 2-CG
   NFREE  =      0    steps in history (QN), initial steepest desc. (CG)
   ISIF   =      0    stress and relaxation
   IWAVPR =     11    prediction:  0-non 1-charg 2-wave 3-comb
   ISYM   =      2    0-nonsym 1-usesym 2-fastsym
   LCORR  =      T    Harris-Foulkes like correction to forces

   POTIM  = 0.5000    time-step for ionic-motion
   TEIN   =    0.0    initial temperature
   TEBEG  =    0.0;   TEEND  =   0.0 temperature during run
   SMASS  =  -3.00    Nose mass-parameter (am)
   estimated Nose-frequenzy (Omega)   =  0.10E-29 period in steps =****** mass=  -0.125E-25a.u.
   SCALEE = 1.0000    scale energy and forces
   NPACO  =    256;   APACO  = 16.0  distance and # of slots for P.C.
   PSTRESS=    0.0 pullay stress

  Mass of Ions in am
   POMASS =  12.01  1.00 16.00 28.09183.85
  Ionic Valenz
   ZVAL   =   4.00  1.00  6.00  4.00  6.00
  Atomic Wigner-Seitz radii
   RWIGS  =  -1.00 -1.00 -1.00 -1.00 -1.00
  virtual crystal weights 
   VCA    =   1.00  1.00  1.00  1.00  1.00
   NELECT =    1258.0000    total number of electrons
   NUPDOWN=      -1.0000    fix difference up-down

 DOS related values:
   EMIN   =  10.00;   EMAX   =-10.00  energy-range for DOS
   EFERMI =   0.00
   ISMEAR =     0;   SIGMA  =   0.20  broadening in eV -4-tet -1-fermi 0-gaus

 Electronic relaxation 2 (details)
   IALGO  =     68    algorithm
   LDIAG  =      T    sub-space diagonalisation (order eigenvalues)
   LSUBROT=      F    optimize rotation matrix (better conditioning)
   TURBO    =      0    0=normal 1=particle mesh
   IRESTART =      0    0=no restart 2=restart with 2 vectors
   NREBOOT  =      0    no. of reboots
   NMIN     =      0    reboot dimension
   EREF     =   0.00    reference energy to select bands
   IMIX   =      4    mixing-type and parameters
     AMIX     =   0.40;   BMIX     =  1.00
     AMIX_MAG =   1.60;   BMIX_MAG =  1.00
     AMIN     =   0.10
     WC   =   100.;   INIMIX=   1;  MIXPRE=   1;  MAXMIX= -45

 Intra band minimization:
   WEIMIN = 0.0010     energy-eigenvalue tresh-hold
   EBREAK =  0.33E-07  absolut break condition
   DEPER  =   0.30     relativ break condition  

   TIME   =   0.40     timestep for ELM

  volume/ion in A,a.u.               =      41.32       278.86
  Fermi-wavevector in a.u.,A,eV,Ry     =   0.785120  1.483662  8.386815  0.616413
  Thomas-Fermi vector in A             =   1.889391

 Write flags
   LWAVE        =      F    write WAVECAR
   LDOWNSAMPLE  =      F    k-point downsampling of WAVECAR
   LCHARG       =      F    write CHGCAR
   LVTOT        =      F    write LOCPOT, total local potential
   LVHAR        =      F    write LOCPOT, Hartree potential only
   LELF         =      F    write electronic localiz. function (ELF)
   LORBIT       =      0    0 simple, 1 ext, 2 COOP (PROOUT), +10 PAW based schemes


 Dipole corrections
   LMONO  =      F    monopole corrections only (constant potential shift)
   LDIPOL =      T    correct potential (dipole corrections)
   IDIPOL =      3    1-x, 2-y, 3-z, 4-all directions 
   EPSILON=  1.0000000 bulk dielectric constant

 Exchange correlation treatment:
   GGA     =    RP    GGA type
   LEXCH   =     9    internal setting for exchange type
   VOSKOWN=      0    Vosko Wilk Nusair interpolation
   LHFCALC =     F    Hartree Fock is set to
   LHFONE  =     F    Hartree Fock one center treatment
   AEXX    =    0.0000 exact exchange contribution

 Linear response parameters
   LEPSILON=     F    determine dielectric tensor
   LRPA    =     F    only Hartree local field effects (RPA)
   LNABLA  =     F    use nabla operator in PAW spheres
   LVEL    =     F    velocity operator in full k-point grid
   LINTERFAST=   F  fast interpolation
   KINTER  =     0    interpolate to denser k-point grid
   CSHIFT  =0.1000    complex shift for real part using Kramers Kronig
   OMEGAMAX=  -1.0    maximum frequency
   DEG_THRESHOLD= 0.2000000E-02 threshold for treating states as degnerate
   RTIME   =   -0.100 relaxation time in fs
  (WPLASMAI=    0.000 imaginary part of plasma frequency in eV, 0.658/RTIME)
   DFIELD  = 0.0000000 0.0000000 0.0000000 field for delta impulse in time

 Orbital magnetization related:
   ORBITALMAG=     F  switch on orbital magnetization
   LCHIMAG   =     F  perturbation theory with respect to B field
   DQ        =  0.001000  dq finite difference perturbation B field
   LLRAUG    =     F  two centre corrections for induced B field



--------------------------------------------------------------------------------------------------------


 quasi-Newton-method for relaxation of ions
   using selective dynamics as specified on POSCAR
 charge density and potential will be updated during run
 non-spin polarized calculation
 RMM-DIIS sequential band-by-band and
  variant of blocked Davidson during initial phase
 perform sub-space diagonalisation
    before iterative eigenvector-optimisation
 modified Broyden-mixing scheme, WC =      100.0
 initial mixing is a Kerker type mixing with AMIX =  0.4000 and BMIX =      1.0000
 Hartree-type preconditioning will be used
 using additional bands          139
 real space projection scheme for non local part
 use partial core corrections
 calculate Harris-corrections to forces   (improved forces if not selfconsistent)
 use gradient corrections 
 use of overlap-Matrix (Vanderbilt PP)
 Gauss-broadening in eV      SIGMA  =   0.20


--------------------------------------------------------------------------------------------------------


  energy-cutoff  :      500.00
  volume of cell :    11405.04
      direct lattice vectors                 reciprocal lattice vectors
    23.411294595  0.000000000  0.000000000     0.042714426  0.000000000  0.000000000
     0.000000000 18.121236951  0.000000000     0.000000000  0.055183871  0.000000000
     0.000000000  0.000000000 26.883366507     0.000000000  0.000000000  0.037197722

  length of vectors
    23.411294595 18.121236951 26.883366507     0.042714426  0.055183871  0.037197722



 k-points in units of 2pi/SCALE and weight: KPOINTS created by Atomic Simulation Env
   0.00000000  0.00000000  0.00000000       0.111
   0.01423814  0.00000000  0.00000000       0.222
   0.00000000  0.01839462  0.00000000       0.222
   0.01423814  0.01839462  0.00000000       0.222
  -0.01423814  0.01839462  0.00000000       0.222

 k-points in reciprocal lattice and weights: KPOINTS created by Atomic Simulation Env
   0.00000000  0.00000000  0.00000000       0.111
   0.33333333  0.00000000  0.00000000       0.222
   0.00000000  0.33333333  0.00000000       0.222
   0.33333333  0.33333333  0.00000000       0.222
  -0.33333333  0.33333333  0.00000000       0.222

 position of ions in fractional coordinates (direct lattice) 
   0.44120438  0.39756458  0.70507439
   0.39506585  0.37372455  0.74153996
   0.54906810  0.45363235  0.72703757
   0.50689715  0.38440119  0.72440540
   0.76221901  0.10221354  0.65154099
   0.92642768  0.27866896  0.35633493
   0.79333970  0.20727890  0.37345652
   0.97453911  0.94360860  0.32530279
   0.62573266  0.96347285  0.37523120
   0.82053840  0.99500666  0.36899263
   0.74999307  0.14117876  0.45803819
   0.91540506  0.24947774  0.50970301
   0.58349286  0.30426355  0.30592717
   0.89239506  0.33501471  0.61618869
   0.60842689  0.36698831  0.60780534
   0.59351593  0.87025082  0.57811780
   0.03294690  0.33716651  0.65351147
   0.93527051  0.41951423  0.45410146
   0.74613838  0.53031199  0.42248819
   0.80308573  0.38648107  0.63787309
   0.59110202  0.56868283  0.37803474
   0.71843379  0.64593279  0.38346059
   0.84115291  0.54242660  0.41959617
   0.00476455  0.60379815  0.35777830
   0.82835870  0.71235667  0.46794226
   0.87898391  0.59857445  0.72062653
   0.51999031  0.98556476  0.42170307
   0.22309457  0.98015484  0.39320502
   0.21637369  0.23785146  0.31923033
   0.15750105  0.32980623  0.27898292
   0.34154688  0.15558571  0.33077276
   0.22271586  0.04575893  0.32273843
   0.51112267  0.82671893  0.54689298
   0.36160029  0.22356066  0.64731217
   0.24385290  0.09491390  0.59940452
   0.31538097  0.48713646  0.44243467
   0.40895618  0.43873486  0.40569060
   0.39849950  0.79311361  0.38878680
   0.24420236  0.65543008  0.29432688
   0.31174138  0.41847571  0.36925764
   0.40547429  0.58427965  0.33881989
   0.13935762  0.48797365  0.35192946
   0.59326935  0.69798713  0.35239799
   0.46900683  0.86142747  0.44382838
   0.12187699  0.32698876  0.61366639
   0.07364614  0.66456253  0.64606649
   0.23553215  0.39988703  0.68225034
   0.24882782  0.81579575  0.67039462
   0.43638539  0.37223566  0.66828281
   0.39638387  0.31344734  0.74739151
   0.35286272  0.38773413  0.72606920
   0.40004141  0.40193753  0.77748841
   0.58421824  0.45011205  0.70035668
   0.52543524  0.34512884  0.69805100
   0.50229702  0.36272320  0.76218124
   0.56271645  0.46633796  0.76496008
   0.36894173  0.64835510  0.43900002
   0.34681565  0.50403387  0.42038813
   0.86091457  0.56613735  0.69665817
   0.34849676  0.96038515  0.53080254
   0.03313243  0.93230633  0.52852966
   0.63635548  0.07886855  0.48937667
   0.06864615  0.05226542  0.39511073
   0.45189954  0.12956232  0.42059728
   0.80588415  0.21365018  0.48316661
   0.97367847  0.18179616  0.59872447
   0.27476529  0.29917287  0.44851223
   0.55635417  0.77509129  0.44175101
   0.39088560  0.97461906  0.62010543
   0.17751724  0.34996845  0.40527312
   0.86652876  0.68446635  0.63758538
   0.86569601  0.96717693  0.46703846
   0.30104714  0.76093683  0.45792526
   0.42161095  0.26125222  0.37959630
   0.81120992  0.46480697  0.52031039
   0.98334730  0.07226292  0.52116801
   0.50458926  0.47015894  0.63180677
   0.03453641  0.91994776  0.42940526
   0.96303654  0.30319531  0.35125762
   0.06962669  0.33610577  0.37637178
   0.20829566  0.72864429  0.39536010
   0.03890126  0.41910192  0.49910875
   0.23961551  0.28735116  0.58746710
   0.39776466  0.19742151  0.64535955
   0.45460418  0.56730298  0.57627672
   0.91006368  0.74901686  0.55751454
   0.86912727  0.10804334  0.44227833
   0.57257679  0.66733185  0.37613173
   0.14242656  0.15912550  0.37597224
   0.35106212  0.76577689  0.60650247
   0.91099605  0.84504757  0.48317962
   0.06133801  0.53687171  0.44225348
   0.70833903  0.55516655  0.41995768
   0.07548726  0.81680680  0.48299416
   0.70046477  0.82755571  0.43263529
   0.73017410  0.04931638  0.54299554
   0.91992644  0.30258046  0.63254072
   0.73506793  0.85181320  0.61301921
   0.62512195  0.52739400  0.48637871
   0.55657330  0.62970304  0.46724942
   0.42566305  0.24830793  0.55569438
   0.97829009  0.72824363  0.47679564
   0.65401298  0.59355977  0.63316433
   0.39655033  0.74802041  0.51497966
   0.60269007  0.51766545  0.38567099
   0.72048689  0.63002263  0.55692080
   0.14812497  0.36681277  0.62192757
   0.06633713  0.54814228  0.54221427
   0.81826875  0.88412141  0.53616992
   0.82821553  0.35538514  0.45190334
   0.52750832  0.29651799  0.53134989
   0.73712328  0.49854167  0.59582814
   0.55743394  0.17243111  0.39490854
   0.80596408  0.25641257  0.38329286
   0.23744622  0.95325075  0.50791956
   0.69256487  0.77501715  0.54188817
   0.92328183  0.94963293  0.55294276
   0.52573722  0.31778112  0.39855594
   0.46717122  0.99345441  0.54672968
   0.83775864  0.09483942  0.53977754
   0.53790325  0.11641749  0.48623709
   0.35019344  0.18660873  0.43963639
   0.01176032  0.96241390  0.33524376
   0.45011515  0.59594950  0.67141502
   0.65496522  0.92539750  0.37922825
   0.07629334  0.68602626  0.43588102
   0.45436637  0.40533962  0.55308589
   0.71921944  0.70042085  0.37958300
   0.45301481  0.70835631  0.59847532
   0.75255106  0.70932458  0.47629548
   0.77949679  0.12020168  0.62107350
   0.99327462  0.30801347  0.44840298
   0.53704828  0.50733377  0.53452112
   0.81677759  0.49906173  0.42344221
   0.23757744  0.14737906  0.60612176
   0.20353331  0.83070132  0.47053363
   0.23983366  0.55928570  0.52269880
   0.06134310  0.62529495  0.62403262
   0.04607407  0.60234669  0.35417863
   0.80050638  0.97808554  0.60533619
   0.53799091  0.02769749  0.40450275
   0.60588254  0.31372686  0.60442932
   0.86154611  0.00408085  0.36920633
   0.09491131  0.14902284  0.46708233
   0.17123084  0.20387519  0.53164226
   0.64098865  0.70443872  0.45481558
   0.43678778  0.40976848  0.38641325
   0.57366429  0.05907092  0.57137701
   0.15143775  0.59340802  0.38895836
   0.26773979  0.60233753  0.39230630
   0.44025846  0.32219818  0.47032443
   0.23800967  0.15851113  0.42990119
   0.07281402  0.14917603  0.56239436
   0.84498571  0.54500485  0.59956458
   0.62117943  0.27993988  0.41090545
   0.60266699  0.89152667  0.46722346
   0.03138539  0.19528983  0.38899188
   0.60750941  0.19504814  0.54796509
   0.13279973  0.93835464  0.47948708
   0.07994487  0.28005537  0.51220504
   0.37163139  0.10674466  0.56924548
   0.06637576  0.69639822  0.53565184
   0.66648838  0.41538488  0.43001156
   0.79955868  0.72902257  0.56413119
   0.70383856  0.95720843  0.47018456
   0.59910733  0.63573322  0.55261591
   0.72284030  0.29368465  0.45166811
   0.97737466  0.31419155  0.54714709
   0.15827921  0.62986054  0.57077257
   0.63333384  0.32678308  0.50780070
   0.82104238  0.39712594  0.60610227
   0.95857820  0.02724304  0.41695300
   0.28186493  0.19553667  0.51864387
   0.24925755  0.44303289  0.46105570
   0.27318809  0.85053301  0.56871220
   0.20366815  0.68557317  0.48688872
   0.14712345  0.47606988  0.49254493
   0.22465539  0.42386857  0.55701657
   0.91141698  0.45274460  0.47371881
   0.86978818  0.70456011  0.46415352
   0.73812021  0.09283462  0.44522965
   0.22218344  0.92978119  0.40794682
   0.25410658  0.40095481  0.65001743
   0.63053245  0.88242583  0.59372934
   0.41022327  0.78906239  0.42343739
   0.91777135  0.19603829  0.50824515
   0.13254706  0.44353611  0.33227266
   0.15514768  0.30352326  0.31056042
   0.37300515  0.13090704  0.34795342
   0.03536282  0.29309492  0.63302679
   0.57268926  0.25686819  0.32009968
   0.24620986  0.77150514  0.65022805
   0.20737430  0.64840505  0.31036906
   0.27537441  0.39219130  0.36737583
   0.36535081  0.59758663  0.34222079
   0.22638085  0.05618082  0.35811888
   0.24120333  0.19607823  0.32934297
   0.50127293  0.89230162  0.45484168
   0.55006480  0.82813296  0.53435969
   0.54440571  0.64567997  0.63365114
   0.47840830  0.12458769  0.59708210
   0.26202093  0.69521509  0.56890946
   0.44172117  0.85004560  0.58077513
   0.76546491  0.61662704  0.64967175
   0.84503995  0.83179655  0.62248831
   0.63983709  0.73893265  0.62167489
   0.00753828  0.03322156  0.60299450
   0.28370152  0.00346621  0.59359155
   0.50246856  0.97373225  0.62894620
   0.45163130  0.52235629  0.76146500
   0.08322528  0.60642030  0.40641308
   0.40946751  0.76755891  0.57403136
   0.84176382  0.44145312  0.46783897
   0.01708949  0.99048204  0.39361135
   0.01470021  0.28419027  0.39108141
   0.00908755  0.11463561  0.57237482
   0.60900910  0.65716893  0.61098076
   0.21401962  0.47643924  0.50958419
   0.91506213  0.75556094  0.49625454
   0.52057854  0.11045563  0.42598659
   0.41828449  0.17123103  0.58952020
   0.08345253  0.13917208  0.40698087
   0.70189793  0.04484625  0.48732303
   0.66505935  0.89803746  0.43747644
   0.65009874  0.50402706  0.43015089
   0.19846065  0.91248223  0.46399069
   0.21512500  0.36798296  0.60397405
   0.67339814  0.81246298  0.59502565
   0.21663091  0.64210097  0.53869556
   0.36878912  0.73512773  0.45920930
   0.79709307  0.88785405  0.59532778
   0.87935997  0.91198619  0.51187785
   0.57683632  0.57493743  0.51248012
   0.58975156  0.11526200  0.52522076
   0.85812234  0.15211323  0.49517595
   0.83544656  0.60400888  0.64595751
   0.13373852  0.36031890  0.35687228
   0.79065529  0.27993925  0.44187265
   0.39917610  0.17749484  0.39600320
   0.85614560  0.74998041  0.59641304
   0.28292915  0.93556056  0.54978191
   0.02307473  0.33044751  0.50224551
   0.57455938  0.69549008  0.43556436
   0.23024095  0.75260050  0.45196954
   0.59362895  0.28346614  0.54773316
   0.97578712  0.27255590  0.60260258
   0.88890636  0.02540900  0.42420019
   0.10460270  0.19515217  0.51792166
   0.04814566  0.73303709  0.48263019
   0.23205311  0.20689731  0.56112847
   0.56140781  0.25778527  0.38122611
   0.47606238  0.62864653  0.61893087
   0.28193022  0.77111130  0.59784691
   0.20850083  0.64339984  0.37179454
   0.74049381  0.71007509  0.53588193
   0.98608411  0.99021167  0.55037352
   0.70310456  0.73681815  0.43426040
   0.78802944  0.05908236  0.57667819
   0.45631390  0.32845159  0.40928789
   0.44864963  0.93828602  0.59463254
   0.50791765  0.04301214  0.58661921
   0.24424715  0.37040632  0.42094710
   0.65852534  0.33000211  0.45034791
   0.46070678  0.31938093  0.52896782
   0.33729937  0.58994254  0.39908301
   0.80368470  0.47669026  0.57989140
   0.06920979  0.89885916  0.48050551
   0.21190758  0.14445432  0.37359659
   0.07823286  0.49398499  0.49468762
   0.55757019  0.85234010  0.47473025
   0.71838680  0.58429451  0.60965433
   0.28664212  0.21010174  0.45911077
   0.08807554  0.62527689  0.56779647
   0.35268308  0.02095454  0.57861060
   0.48627067  0.48345653  0.57393037
   0.47457058  0.50342513  0.70167221

 position of ions in cartesian coordinates  (Angst):
  10.32916575  7.20436199 18.95477335
   9.24900305  6.77235112 19.93509047
  12.85439514  8.22037932 19.54521755
  11.86711840  6.96582512 19.47445591
  17.84453390  1.85223576 17.51561520
  21.68887124  5.04982630  9.57948250
  18.57310935  3.75615001 10.03976840
  22.81522226 17.09935504  8.74523415
  14.64921175 17.45931981 10.08747787
  19.20986618 18.03075152  9.91976410
  17.55830880  2.55833368 12.31360861
  21.43081745  4.52084517 13.70253285
  13.66032332  5.51363181  8.22435231
  20.89212353  6.07088085 16.56522633
  14.24406122  6.65028206 16.33985380
  13.89497618 15.77002133 15.54175264
   0.77132963  6.10987425 17.56858833
  21.89589338  7.60211669 12.20777585
  17.46806539  9.60990927 11.35790489
  18.80127651  7.00351508 17.14817615
  13.83846346 10.30523625 10.16284657
  16.81946503 11.70510106 10.30871170
  19.69247867  9.82944087 11.28015755
   0.11154425 10.94156933  9.61828518
  19.39294954 12.90878407 12.57986315
  20.57815134 10.84690953 19.37286714
  12.17364643 17.85965257 11.33679820
   5.22293275 17.76161801 10.57067472
   5.06558822  4.31016263  8.58198589
   3.68730349  5.97649684  7.50000000
   7.99605454  2.81940543  8.89228530
   5.21406665  0.82920834  8.67629559
  11.96604334 14.98116968 14.70232441
   8.46553090  4.05119562 17.40193041
   5.70891206  1.71995723 16.11401152
   7.38347683  8.82751530 11.89413327
   9.57419369  7.95041833 10.90632902
   9.32938926 14.37219961 10.45189795
   5.71709332 11.87720376  7.91249741
   7.29826932  7.58329756  9.92688859
   9.49267817 10.58787004  9.10861924
   3.26254231  8.84268607  9.46104865
  13.88920341 12.64839014  9.47364424
  10.98005707 15.61013128 11.93160111
   2.85329813  5.92544080 16.49741848
   1.72415142 12.04269505 17.36844214
   5.51411261  7.24644765 18.34118603
   5.82538145 14.78322810 18.02246416
  10.21634699  6.74537067 17.96569166
   9.27985950  5.68005356 20.09239987
   8.26097310  7.02622212 19.51918436
   9.36548733  7.28360518 20.90150576
  13.67730532  8.15658720 18.82794540
  12.30111919  6.25416144 18.76596096
  11.75942361  6.57299307 20.48999764
  13.17392069  8.45062068 20.56470227
   8.63740362 11.74899635 11.80179838
   8.11940335  9.13371715 11.30144811
  20.15512452 10.25910900 18.72851681
   8.15876033 17.40336691 14.26975913
   0.77567307 16.89454394 14.20865658
  14.89790566  1.42919560 13.15609244
   1.60709516  0.94711408 10.62190669
  10.57955331  2.34782959 11.30707087
  18.86679123  3.87160553 12.98914499
  22.79507355  3.29437123 16.09572930
   6.43261122  5.42138248 12.05751853
  13.02497128 14.04561294 11.87575437
   9.15113791 17.66130293 16.67052149
   4.15590840  6.34186119 10.89510594
  20.28656014 12.40337684 17.14044157
  20.26706432 17.52644236 12.55556607
   7.04790320 13.78911669 12.31057251
   9.87045805  4.73421333 10.20482654
  18.99147432  8.42287723 13.98769493
  23.02143336  1.30949347 14.01075074
  11.81308775  8.51986159 16.98509284
   0.80854198 16.67059137 11.54385891
  22.54593219  5.49427402  9.44298747
   1.63005096  6.09065222 10.11814055
   4.87647100 13.20393591 10.62861051
   0.91072893  7.59464512 13.41772355
   5.60970935  5.20715838 15.79309329
   9.31218570  3.57752197 17.34943729
  10.64287240 10.28023177 15.49225824
  21.30576880 13.57311196 14.98786780
  20.34739459  1.95787901 11.88993046
  13.40476402 12.09287863 10.11168720
   3.33439013  2.88355087 10.10739962
   8.21881861 13.87682455 16.30482812
  21.32759690 15.31330727 12.98949491
   1.43600223  9.72877939 11.88926245
  16.58313365 10.06030463 11.28987623
   1.76725442 14.80154965 12.98450890
  16.39878711 14.99633320 11.63069310
  17.09432089  0.89367384 14.59754814
  21.53666896  5.48313219 17.00482408
  17.20889191 15.43590890 16.48002014
  14.63491423  9.55703168 13.07549710
  13.03010146 11.41099800 12.56123752
   9.96532303  4.49964691 14.93893572
  22.90303759 13.19667544 12.81787194
  15.31129055 10.75603722 17.02158867
   9.28375655 13.55505506 13.84438696
  14.10975474  9.38073831 10.36813464
  16.86753095 11.41678929 14.97190597
   3.46779720  6.64710121 16.71950684
   1.55303819  9.93301618 14.57654487
  19.15673078 16.02137357 14.41405253
  19.38959778  6.44001838 12.14868300
  12.34965266  5.37327278 14.28447378
  17.25701033  9.03419164 16.01786632
  13.05025009  3.12466491 10.61647095
  18.86866258  4.64651294 10.30420244
   5.55892333 17.27408272 13.65458756
  16.21384031 14.04426940 14.56777833
  21.61522298 17.20852338 14.86496294
  12.30818899  5.75858696 10.71452528
  10.93708312 18.00262282 14.69793429
  19.61301436  1.71860759 14.51103753
  12.59301152  2.10962891 13.07168996
   8.19848185  3.38158105 11.81890631
   0.27532438 17.44013032  9.01248080
  10.53777845 10.79934219 18.04989601
  15.33358375 16.76934745 10.19493214
   1.78612593 12.43164436 11.71794928
  10.63730501  7.34525531 14.86881076
  16.83785811 12.69249221 10.20446890
  10.60566318 12.83629263 16.08903135
  17.61819454 12.85383870 12.80442605
  18.24902905  2.17820308 16.69654653
  23.25384464  5.58158513 12.05458163
  12.57299546  9.19351538 14.36972711
  19.12182067  9.04361594 11.38355200
   5.56199535  2.67069084 16.29459337
   4.76497818 15.05333538 12.64952801
   5.61481643 10.13494868 14.05190349
   1.43612146 11.33111804 16.77609753
   1.07865368 10.91526713  9.52151395
  18.74089073 17.72411980 16.27347461
  12.59506368  0.50191281 10.87439573
  14.18449460  5.68511878 16.24909485
  20.16990973  0.07395004  9.92550906
   2.22199659  2.70047811 12.55674536
   4.00873569  3.69447061 14.29233381
  15.00637423 12.76530096 12.22697399
  10.22576747  7.42551173 10.38808912
  13.43022358  1.07043818 15.36053749
   3.54535369 10.75328740 10.45651017
   6.26813510 10.91510113 10.54651395
  10.30702050  5.83862960 12.64390410
   5.57211440  2.87241773 11.55719116
   1.70467058  2.70325415 15.11905382
  19.78220931  9.87616199 16.11831429
  14.54261459  5.07285683 11.04652184
  14.10921452 16.15556596 12.56053950
   0.73477264  3.53889327 10.45741115
  14.22258170  3.53451364 14.73114643
   3.10901351 17.00414686 12.89022683
   1.87161285  5.07494968 13.76979589
   8.70037205  1.93434535 15.30323480
   1.55394245 12.61959718 14.40012479
  15.60335581  7.52728779 11.56015827
  18.71870382 13.21079079 15.16574553
  16.47777184 17.34580083 12.64014391
  14.02587817 11.52027232 14.85617592
  16.92262720  5.32192920 12.14235921
  22.88160608  5.69353951 14.70915586
   3.70552130 11.41385215 15.34428832
  14.82716522  5.92171361 13.65139239
  19.22166493  7.19641322 16.29406955
  22.44155659  0.49367766 11.20910044
   6.59882291  3.54336625 13.94289323
   5.83544193  8.02830396 12.39472924
   6.39568680 15.41271023 15.28889856
   4.76813504 12.42343385 13.08920785
   3.44435051  8.62697504 13.24126574
   5.25947340  7.68102285 14.97448071
  21.33745138  8.20429214 12.73515651
  20.36286723 12.76750071 12.47800922
  17.28034963  1.68227812 11.96927179
   5.20160188 16.84878525 10.96698378
   5.94896409  7.26579709 17.47465687
  14.76158097 15.99064749 15.96144349
   9.60385771 14.29878657 11.38342242
  21.48621551  3.55245637 13.66334053
   3.10309823  8.03742301  8.93260776
   3.63220806  5.50021683  8.34890949
   8.73253334  2.37219755  9.35415932
   0.82788940  5.31124248 17.01789113
  13.40739699  4.65476936  8.60535697
   5.76409156 13.98062736 17.48031896
   4.85490080 11.74990154  8.34376522
   6.44687148  7.10699146  9.87629901
   8.55333550 10.82900896  9.20004704
   5.29986877  1.01806602  9.62744117
   5.64688233  3.55318002  8.85384768
  11.73544815 16.16960912 12.22767567
  12.87772912 15.00679368 14.36538749
  12.74524246 11.70051974 17.03467596
  11.20015769  2.25768301 16.05157685
   6.13424923 12.59815746 15.29420152
  10.34126450 15.40387765 15.61319079
  17.92052441 11.17404474 17.46536367
  19.78347933 15.07318239 16.73458146
  14.97941451 13.39037363 16.71271399
   0.17648082  0.60201581 16.21052212
   6.64181990  0.06281199 15.95773919
  11.76343943 17.64523288 16.90819108
  10.57327346  9.46574204 20.47074278
   1.94841153 10.98908596 10.92575188
   9.58616444 13.90911694 15.43189551
  19.70678074  7.99967650 12.57708649
   0.40008717 17.94875972 10.58159830
   0.34415087  5.14987929 10.51358498
   0.21275142  2.07733901 15.38736199
  14.25769156 11.90871395 16.42521965
   5.01047631  8.63366839 13.69933859
  21.42278905 13.69169878 13.34099278
  12.18741762  2.00159257 11.45195358
   9.79258139  3.10291814 15.84828748
   1.95373172  2.52197018 10.94101594
  16.43233932  0.81266960 13.10088356
  15.56990047 16.27354966 11.76083937
  15.21965321  9.13359373 11.56390395
   4.64622068 16.53530673 12.47363180
   5.03635475  6.66830635 16.23685571
  15.76512232 14.72283410 15.99629260
   5.07160994 11.63566378 14.48195024
   8.63383069 13.32142384 12.34509184
  18.66098060 16.08901356 16.00441480
  20.58695530 16.52631793 13.76099987
  13.50448499 10.41857740 13.77719085
  13.80684746  2.08868994 14.11970227
  20.08975493  2.75647992 13.31199648
  19.55888557 10.94538801 17.36551261
   3.13099191  6.52942423  9.59392828
  18.51026388  5.07284540 11.87902451
   9.34522920  3.21642612 10.64589911
  20.04347686 13.59057268 16.03359026
   6.62373776 16.95351453 14.77998847
   0.54020935  5.98811771 13.50205012
  13.45117902 12.60314055 11.70943634
   5.39023881 13.63805192 12.15046292
  13.89762226  5.13675718 14.72491121
  22.84443969  4.93905007 16.19998604
  20.81044864  0.46044249 11.40392910
   2.44888452  3.53639871 13.92347779
   1.12715225 13.28353886 12.97472440
   5.43266379  3.74923517 15.08502236
  13.14328356  4.67138795 10.24864117
  11.14523656 11.39185264 16.63894543
   6.60035147 13.97349065 16.07213746
   4.88127424 11.65920103  9.99508876
  17.33591875 12.86743902 14.40631023
  23.08550548 17.94386027 14.79589317
  16.46058793 13.35205634 11.67438144
  18.44878929  1.07064551 15.50305111
  10.68289909  5.95194918 11.00303640
  10.50346870 17.00290338 15.98572456
  11.89100972  0.77943323 15.77029933
   5.71814202  6.71222076 11.31647527
  15.41693082  5.98004644 12.10686792
  10.78574223  5.78757743 14.22043571
   7.89661487 10.69048858 10.72869482
  18.81529937  8.63821720 15.58943312
   1.62029077 16.28843974 12.91760565
   4.96103075  2.61769098 10.04353415
   1.83153245  8.95161914 13.29886860
  13.05343995 15.44545689 12.76234739
  16.81836504 10.58813919 16.38956076
   6.71066321  3.80730338 12.34244318
   2.06196236 11.33079062 15.26428073
   8.25676739  0.37972214 15.55500092
  11.38422593  8.76083040 15.42918055
  11.11031162  9.12268608 18.86331129



--------------------------------------------------------------------------------------------------------


 k-point  1 :   0.0000 0.0000 0.0000  plane waves:  289505
 k-point  2 :   0.3333 0.0000 0.0000  plane waves:  289422
 k-point  3 :   0.0000 0.3333 0.0000  plane waves:  289550
 k-point  4 :   0.3333 0.3333 0.0000  plane waves:  289551
 k-point  5 :  -0.3333 0.3333 0.0000  plane waves:  289551

 maximum and minimum number of plane-waves per node :     72451    72309

 maximum number of plane-waves:    289551
 maximum index in each direction: 
   IXMAX=   43   IYMAX=   33   IZMAX=   49
   IXMIN=  -43   IYMIN=  -33   IZMIN=  -49


 real space projection operators:
  total allocation   :      13782.62 KBytes
  max/ min on nodes  :       3448.38       3443.23


 parallel 3D FFT for wavefunctions:
    minimum data exchange during FFTs selected (reduces bandwidth)
 parallel 3D FFT for charge:
    minimum data exchange during FFTs selected (reduces bandwidth)


 total amount of memory used by VASP MPI-rank0   697387. kBytes
=======================================================================

   base      :      30000. kBytes
   nonlr-proj:      16951. kBytes
   fftplans  :      30982. kBytes
   grid      :      57864. kBytes
   one-center:       1073. kBytes
   wavefun   :     560517. kBytes

     INWAV:  cpu time    0.0001: real time    0.0001
 Broyden mixing: mesh for mixing (old mesh)
   NGX = 85   NGY = 67   NGZ = 99
  (NGX  =256   NGY  =200   NGZ  =300)
  gives a total of 563805 points

 initial charge density was supplied:
 charge density of overlapping atoms calculated
 number of electron    1258.0000000 magnetization 
 keeping initial charge density in first step


--------------------------------------------------------------------------------------------------------


 Maximum index for non-local projection operator          649
 Maximum index for augmentation-charges          400 (set IRDMAX)


--------------------------------------------------------------------------------------------------------


 First call to EWALD:  gamma=   0.079
 Maximum number of real-space cells 3x 3x 2
 Maximum number of reciprocal cells 3x 2x 3

    FEWALD:  cpu time    0.0322: real time    0.0323


--------------------------------------- Iteration      1(   1)  ---------------------------------------


    POTLOK:  cpu time    0.2800: real time    0.2858
    SETDIJ:  cpu time    0.5712: real time    0.5729
     EDDAV:  cpu time   80.6544: real time   80.9655
       DOS:  cpu time    0.0022: real time    0.0022
    --------------------------------------------
      LOOP:  cpu time   81.5078: real time   81.8263

 eigenvalue-minimisations  :  8592
 total energy-change (2. order) : 0.1287800E+05  (-0.4951875E+05)
 number of electron    1258.0000000 magnetization 
 augmentation part     1258.0000000 magnetization 

 DIPCOR: dipole corrections for dipol
 direction  3 min pos    72,
 dipolmoment           0.000000      0.000000      1.884298 electrons x Angstroem
 Tr[quadrupol]    -95221.735290

 energy correction for charged system         0.000000 eV
 dipol+quadrupol energy correction           -0.028868 eV
 added-field ion interaction        241.465871 eV  (added to PSCEN)


 Free energy of the ion-electron system (eV)
  ---------------------------------------------------
  alpha Z        PSCENC =       731.59995611
  Ewald energy   TEWEN  =    310490.41235323
  -Hartree energ DENC   =   -372716.16044730
  -exchange      EXHF   =         0.00000000
  -V(xc)+E(xc)   XCENC  =      3778.63797504
  PAW double counting   =     59955.48764796   -58973.29898038
  entropy T*S    EENTRO =        -1.64594926
  eigenvalues    EBANDS =     -5094.27128282
  atomic energy  EATOM  =     74707.24229009
  Solvation  Ediel_sol  =         0.00000000
  ---------------------------------------------------
  free energy    TOTEN  =     12878.00356266 eV

  energy without entropy =    12879.64951192  energy(sigma->0) =    12878.82653729


--------------------------------------------------------------------------------------------------------




--------------------------------------- Iteration      1(   2)  ---------------------------------------


     EDDAV:  cpu time   96.6290: real time   97.0037
       DOS:  cpu time    0.0012: real time    0.0012
    --------------------------------------------
      LOOP:  cpu time   96.6302: real time   97.0049

 eigenvalue-minimisations  : 10736
 total energy-change (2. order) :-0.1225577E+05  (-0.1186563E+05)
 number of electron    1258.0000000 magnetization 
 augmentation part     1258.0000000 magnetization 

 DIPCOR: dipole corrections for dipol
 direction  3 min pos    72,
 dipolmoment           0.000000      0.000000      1.884298 electrons x Angstroem
 Tr[quadrupol]    -95221.735290

 energy correction for charged system         0.000000 eV
 dipol+quadrupol energy correction           -0.028868 eV
 added-field ion interaction        241.465871 eV  (added to PSCEN)


 Free energy of the ion-electron system (eV)
  ---------------------------------------------------
  alpha Z        PSCENC =       731.59995611
  Ewald energy   TEWEN  =    310490.41235323
  -Hartree energ DENC   =   -372716.16044730
  -exchange      EXHF   =         0.00000000
  -V(xc)+E(xc)   XCENC  =      3778.63797504
  PAW double counting   =     59955.48764796   -58973.29898038
  entropy T*S    EENTRO =        -0.00000000
  eigenvalues    EBANDS =    -17351.68273894
  atomic energy  EATOM  =     74707.24229009
  Solvation  Ediel_sol  =         0.00000000
  ---------------------------------------------------
  free energy    TOTEN  =       622.23805580 eV

  energy without entropy =      622.23805580  energy(sigma->0) =      622.23805580


--------------------------------------------------------------------------------------------------------




--------------------------------------- Iteration      1(   3)  ---------------------------------------


     EDDAV:  cpu time   83.1716: real time   83.5073
       DOS:  cpu time    0.0013: real time    0.0013
    --------------------------------------------
      LOOP:  cpu time   83.1729: real time   83.5086

 eigenvalue-minimisations  :  8952
 total energy-change (2. order) :-0.2639309E+04  (-0.2629565E+04)
 number of electron    1258.0000000 magnetization 
 augmentation part     1258.0000000 magnetization 

 DIPCOR: dipole corrections for dipol
 direction  3 min pos    72,
 dipolmoment           0.000000      0.000000      1.884298 electrons x Angstroem
 Tr[quadrupol]    -95221.735290

 energy correction for charged system         0.000000 eV
 dipol+quadrupol energy correction           -0.028868 eV
 added-field ion interaction        241.465871 eV  (added to PSCEN)


 Free energy of the ion-electron system (eV)
  ---------------------------------------------------
  alpha Z        PSCENC =       731.59995611
  Ewald energy   TEWEN  =    310490.41235323
  -Hartree energ DENC   =   -372716.16044730
  -exchange      EXHF   =         0.00000000
  -V(xc)+E(xc)   XCENC  =      3778.63797504
  PAW double counting   =     59955.48764796   -58973.29898038
  entropy T*S    EENTRO =        -0.00000000
  eigenvalues    EBANDS =    -19990.99185899
  atomic energy  EATOM  =     74707.24229009
  Solvation  Ediel_sol  =         0.00000000
  ---------------------------------------------------
[...]
     23.02043      1.31186     14.01107        -0.001440     -0.001803     -0.003266
     11.81023      8.51787     16.98740        -0.008434     -0.004381      0.011372
      0.80854     16.67059     11.54386        -0.103507      0.445799     -0.282745
     22.54593      5.49427      9.44299         0.190538     -0.187218      0.423531
      1.63005      6.09065     10.11814         0.285657     -0.138808     -0.016466
      4.87647     13.20394     10.62861         0.407910     -0.169285      0.422421
      0.91073      7.59465     13.41772         0.452281      0.008635      0.181374
      5.61059      5.20625     15.79275         0.007486     -0.003133     -0.003186
      9.30881      3.57239     17.34967        -0.015818     -0.007308      0.003552
     10.64026     10.27970     15.49657        -0.004343     -0.013645      0.001362
     21.30295     13.57272     14.98738        -0.017406      0.002381      0.003752
     20.34739      1.95788     11.88993        -0.081736     -0.033653      0.442732
     13.40476     12.09288     10.11169        -0.256397      0.196618      0.078953
      3.33439      2.88355     10.10740        -0.041533     -0.057113      0.204826
      8.21809     13.87542     16.30389        -0.001956     -0.010770     -0.000921
     21.32760     15.31331     12.98949         0.333356     -1.506465      0.183589
      1.43600      9.72878     11.88926         0.537593      0.253758      0.099029
     16.58313     10.06030     11.28988        -0.076925     -0.561542     -0.048990
      1.76725     14.80155     12.98451        -0.016737     -6.385029      0.323528
     16.39879     14.99633     11.63069         1.826226     -3.798022     -0.200982
     17.09543      0.89364     14.59663         0.003643     -0.001260     -0.002708
     21.53555      5.48334     17.00721        -0.005613     -0.000304      0.006715
     17.20745     15.44005     16.48021        -0.009083      0.011757      0.001203
     14.63491      9.55703     13.07550         1.933824     -1.185429     -1.314897
     13.03010     11.41100     12.56124        -3.522432     -2.948120      1.910273
      9.96399      4.50079     14.93877         0.001418      0.009428      0.004413
     22.90304     13.19668     12.81787         0.417352      0.308192      0.231235
     15.31171     10.75603     17.02434         0.005903      0.004697      0.006907
      9.28146     13.55506     13.84488        -0.006141      0.001345     -0.003776
     14.10975      9.38074     10.36813         0.287935     -0.136683      0.350939
     16.86897     11.41700     14.97242        -0.002397     -0.003478     -0.005762
      3.46991      6.64490     16.71935         0.003064      0.000954     -0.007931
      1.55324      9.93457     14.57513         0.004782      0.006209      0.000560
     19.16330     16.01894     14.41784         0.026223      0.005553     -0.001588
     19.38960      6.44002     12.14868        -0.132178      0.245190      0.192672
     12.35000      5.37632     14.28940         0.002557      0.021053      0.029749
     17.25637      9.03364     16.01839        -0.001876     -0.002404      0.007238
     13.05025      3.12466     10.61647        -1.371212     -1.827258      0.528515
     18.86866      4.64651     10.30420        -0.041797     -0.025999      0.764139
      5.55892     17.27408     13.65459        -0.827609      0.215184     -0.977687
     16.21331     14.04482     14.56645        -0.008686      0.003068     -0.001751
     21.61561     17.20919     14.86679         0.014283      0.003574      0.001002
     12.30819      5.75859     10.71453        -7.850547      6.637848      3.173013
     10.93669     18.00364     14.69611         0.005360     -0.006649     -0.001274
     19.61291      1.71794     14.51074        -0.001163     -0.008949      0.001048
     12.59301      2.10963     13.07169        -2.074127      0.604407     -1.049992
      8.19848      3.38158     11.81891        -0.155366      0.158715      0.068984
      0.27532     17.44013      9.01248        -0.249630      0.117526      0.331347
     10.54282     10.80151     18.05343         0.029681      0.005019      0.019387
     15.33358     16.76935     10.19493        -0.559666      0.131607      0.627425
      1.78613     12.43164     11.71795         0.018519     -0.127606      0.107162
     10.63534      7.34455     14.87023         0.000401     -0.000365      0.008836
     16.83786     12.69249     10.20447        -0.037976      0.282279      0.483338
     10.60566     12.83482     16.08543        -0.005814     -0.002782     -0.017947
     17.61819     12.85384     12.80443        -0.356895      0.235067     -1.048266
     18.24608      2.17798     16.69724        -0.018120     -0.003785      0.020877
     23.25384      5.58159     12.05458         0.273718      0.004769      0.012399
     12.57220      9.19187     14.37299        -0.007493      0.001029      0.013493
     19.12182      9.04362     11.38355         0.348655     -0.403928      0.468943
      5.56292      2.67082     16.29479         0.001548     -0.009735      0.004638
      4.76498     15.05334     12.64953         0.578531     -6.662522      0.328550
      5.61605     10.13540     14.05243         0.004298      0.003551      0.006427
      1.43580     11.33228     16.77395        -0.002423     -0.000766     -0.011625
      1.07865     10.91527      9.52151         0.186262      0.217230      0.444771
     18.74187     17.72470     16.27306         0.003711      0.011250     -0.001965
     12.59506      0.50191     10.87440        -0.219705      0.388856      0.167865
     14.19019      5.68351     16.25148         0.045876     -0.006103      0.005064
     20.16991      0.07395      9.92551        -0.064910      0.008031      0.303914
      2.22200      2.70048     12.55675        -0.008633     -0.011160     -0.736097
      4.00890      3.69406     14.29223        -0.005045     -0.001805     -0.001386
     15.00637     12.76530     12.22697         2.694161      0.239826     -0.653577
     10.22577      7.42551     10.38809         0.252987     -0.705254      0.499723
     13.42952      1.07067     15.36117        -0.013460     -0.009888      0.005741
      3.54535     10.75329     10.45651        -0.020413      0.692377      0.088373
      6.26814     10.91510     10.54651         0.126367      0.309966      0.033386
     10.30702      5.83863     12.64390         0.380181      0.125531     -0.689239
      5.57211      2.87242     11.55719         0.322414      0.285802     -0.337593
      1.70390      2.70552     15.12111        -0.001166      0.004952      0.000974
     19.78057      9.87455     16.11822        -0.007749     -0.001104     -0.005063
     14.54261      5.07286     11.04652         1.404434      0.648428      0.866193
     14.10921     16.15557     12.56054        23.562695     14.656984     -4.530292
      0.73477      3.53889     10.45741         0.418046      0.155462      0.281793
     14.22515      3.53542     14.72966         0.000975     -0.002531     -0.002408
      3.10901     17.00415     12.89023        -0.016786     -0.141992     -0.315739
      1.87383      5.07609     13.76860         0.008522      0.007243     -0.013444
      8.70259      1.93691     15.29792        -0.003446      0.000436     -0.036065
      1.55347     12.62126     14.39974         0.001287      0.007182      0.006436
     15.60336      7.52729     11.56016        -0.310162      0.144654      0.459892
     18.71667     13.21416     15.16600        -0.012991      0.012654     -0.000242
     16.47777     17.34580     12.64014        -0.763447      0.394577     -0.189205
     14.02767     11.51792     14.85632         0.007600      0.001093      0.015005
     16.92263      5.32193     12.14236         0.247310      0.045328     -0.009188
     22.88304      5.69506     14.71095         0.001277     -0.003051      0.002075
      3.70598     11.41456     15.34240        -0.005735      0.002179     -0.000697
     14.82717      5.92171     13.65139         0.401412      0.247085     -0.739115
     19.22117      7.19366     16.29244         0.006881     -0.002147     -0.003544
     22.44156      0.49368     11.20910        -0.296773     -0.371614     -0.325079
      6.59844      3.54201     13.94266        -0.003972      0.003603      0.003524
      5.83544      8.02830     12.39473        -0.050546     -0.697161     -0.593720
      6.39443     15.41540     15.29090        -0.001965      0.014246      0.009190
      4.76814     12.42343     13.08921         0.216529      0.573169     -0.397446
      3.44435      8.62698     13.24127        -0.288985      0.078544      0.200854
      5.26555      7.67898     14.97270         0.007093     -0.007061     -0.000629
     21.33745      8.20429     12.73516        -0.247864     -0.140809     -0.131868
     20.36287     12.76750     12.47801         0.331261      0.278263      0.440228
     17.28035      1.68228     11.96927        -0.174422     -0.265128      0.478134
      5.20160     16.84879     10.96698        -0.336857      0.372848      0.367022
      5.94987      7.26540     17.47499         0.000369     -0.005990     -0.000794
     14.76155     15.99151     15.95832        -0.000713      0.005579     -0.003194
      9.60386     14.29879     11.38342        -0.521984     -0.391482      0.235711
     21.48622      3.55246     13.66334        -0.748960     -0.033830     -0.104170
      3.10310      8.03742      8.93261         0.094126     -0.247480      0.319703
      3.63221      5.50022      8.34891        -0.163897      0.543004      0.362327
      8.73253      2.37220      9.35416         0.184193      0.603473      0.346869
      0.82721      5.30908     17.01819        -0.006851     -0.007705      0.006131
     13.40740      4.65477      8.60536        -0.198304      0.159066      0.216356
      5.76337     13.97869     17.47764        -0.009358     -0.006304      0.007319
      4.85490     11.74990      8.34377         0.071487     -0.131352      0.502291
      6.44687      7.10699      9.87630         0.010262      0.040063      0.712953
      8.55334     10.82901      9.20005        -0.090958     -0.028268      0.743145
      5.29987      1.01807      9.62744        -0.075902      0.797799      0.119952
      5.64688      3.55318      8.85385        -0.379971     -0.059284      0.458429
     11.73545     16.16961     12.22768        -2.222784      1.059047     -0.694434
     12.87800     15.00730     14.36607         0.001149      0.001565      0.007157
     12.74600     11.70070     17.03270         0.011066      0.004409     -0.009034
     11.19479      2.25571     16.04997         0.006593     -0.016514     -0.012029
      6.13522     12.60132     15.28798         0.006667      0.008458     -0.010605
     10.33975     15.40324     15.61698        -0.010181     -0.002778      0.008761
     17.92061     11.17517     17.46289         0.001704      0.001224      0.003662
     19.78023     15.07215     16.74056        -0.005126      0.002804      0.016141
     14.97977     13.39154     16.71551         0.005561      0.005092      0.003447
      0.17808      0.60056     16.21046         0.002640      0.000225     -0.006339
      6.64168      0.06371     15.95622         0.010714      0.004285     -0.010441
     11.76318     17.64211     16.90795        -0.000121     -0.009456     -0.006724
     10.57454      9.46390     20.47343         0.007683     -0.013767      0.028566
      1.94841     10.98909     10.92575        -0.049210     -0.122104      0.025145
      9.58567     13.90874     15.43179        -0.000445     -0.008444      0.001889
     19.70678      7.99968     12.57709         0.116171     -0.180062     -0.288138
      0.40009     17.94876     10.58160         0.088641     -0.148309      0.304451
      0.34415      5.14988     10.51358         0.041433      0.034519      0.039817
      0.21251      2.07752     15.38866         0.000356      0.003208      0.004216
     14.25919     11.90899     16.42501         0.005250     -0.002603     -0.002694
      5.01132      8.63344     13.69990         0.000081      0.002536     -0.005480
     21.42279     13.69170     13.34099         0.211745      0.214327     -0.641307
     12.18742      2.00159     11.45195         0.151001     -0.070087      0.460359
      9.79049      3.10366     15.84710        -0.007779      0.006169     -0.003056
      1.95373      2.52197     10.94102         0.074134     -0.127615      0.031281
     16.43234      0.81267     13.10088         0.103086     -0.098562     -0.331906
     15.56990     16.27355     11.76084        -0.498708      4.515503     -0.219884
     15.21965      9.13359     11.56390         0.003138      0.127895      0.301440
      4.64622     16.53531     12.47363        -0.686053      6.146448     -0.345383
      5.03780      6.66736     16.23625         0.012720      0.000756     -0.010142
     15.76540     14.72362     15.99587         0.004625      0.009188      0.004034
      5.07210     11.63613     14.48088         0.006964     -0.001510     -0.003997
      8.63383     13.32142     12.34509        -0.337692      0.039079     -0.101605
     18.66170     16.08942     16.00540         0.001929      0.002414      0.020964
     20.58932     16.52711     13.76149         0.000375     -0.001588      0.005915
     13.50313     10.41696     13.77772         0.001934     -0.001028     -0.008377
     13.80705      2.08913     14.12043        -0.000994      0.001446      0.003361
     20.08975      2.75648     13.31200        -0.190980     -0.024475     -0.444079
     19.55790     10.94535     17.36425        -0.003071     -0.000986     -0.004916
      3.13099      6.52942      9.59393        -0.092024     -0.104078      0.036718
     18.51026      5.07285     11.87902        -0.273536      0.104490      0.071063
      9.34523      3.21643     10.64590        -0.107350     -0.297101      0.221962
     20.04198     13.59112     16.03499        -0.009850      0.005993      0.013863
      6.62519     16.95462     14.77858         0.006876      0.003711     -0.005225
      0.54021      5.98812     13.50205         0.280883      0.182822     -0.398935
     13.45118     12.60314     11.70944         3.879913     -0.941948     -2.404898
      5.39024     13.63805     12.15046         0.188356     -0.584768      0.004772
     13.89856      5.13745     14.72681         0.005440      0.003324      0.004632
     22.84277      4.93853     16.20073        -0.001614     -0.002334      0.002397
     20.81045      0.46044     11.40393         0.015725      0.034749      0.108623
      2.44851      3.53642     13.92364         0.002493      0.004934      0.000234
      1.12715     13.28354     12.97472        -0.160850     -0.588450     -0.256086
      5.43272      3.74863     15.08481         0.005076     -0.001004     -0.005123
     13.14328      4.67139     10.24864         8.314488     -5.341177     -3.582226
     11.14583     11.39200     16.63967         0.004330     -0.004902      0.013225
      6.60021     13.97412     16.07014        -0.003327      0.007284     -0.005781
      4.88127     11.65920      9.99509         0.097012     -0.057258      0.020915
     17.33514     12.86767     14.40634        -0.000994      0.002106      0.000318
     23.08625     17.94422     14.79496         0.006610     -0.001462     -0.002526
     16.46059     13.35206     11.67438        -0.739747     -1.382363      0.369645
     18.44881      1.07098     15.50355         0.004575     -0.000105      0.002335
     10.68290      5.95195     11.00304        -1.156500      0.570115      0.519606
     10.50292     17.00301     15.98472        -0.001064      0.000354     -0.005307
     11.88943      0.77902     15.77095         0.001892     -0.002459     -0.002759
      5.71814      6.71222     11.31648         0.039342     -0.117069     -0.126043
     15.41693      5.98005     12.10687        -0.140801     -0.420076     -0.915438
     10.78532      5.78800     14.22097        -0.006778     -0.002791      0.001868
      7.89661     10.69049     10.72869        -0.093523     -0.057368     -0.031982
     18.81451      8.63687     15.58958        -0.007519     -0.006674     -0.001302
      1.62029     16.28844     12.91761        -0.360618      6.436983     -0.520954
      4.96103      2.61769     10.04353        -0.063595     -0.049881      0.046221
      1.83153      8.95162     13.29887         0.026590     -0.107339     -0.302609
     13.05344     15.44546     12.76235       -22.322599    -15.879081      4.730694
     16.81763     10.58792     16.38957         0.000431     -0.003886      0.000338
      6.71066      3.80730     12.34244        -0.194486      0.032209     -0.842369
      2.06283     11.33226     15.26287        -0.002568      0.005122     -0.005021
      8.25770      0.38265     15.55296         0.001695      0.006206     -0.012864
     11.38223      8.75984     15.43131        -0.005651      0.001340      0.005689
     11.11124      9.12202     18.86484         0.009189     -0.005054     -0.014368
 -----------------------------------------------------------------------------------
    total drift:                                0.268474      0.382546      0.236854


--------------------------------------------------------------------------------------------------------



  FREE ENERGIE OF THE ION-ELECTRON SYSTEM (eV)
  ---------------------------------------------------
  free  energy   TOTEN  =     -1887.30360847 eV

  energy  without entropy=    -1887.30360847  energy(sigma->0) =    -1887.30360847

 d Force = 0.6587349E-03[ 0.247E-03, 0.107E-02]  d Energy = 0.6503602E-03 0.837E-05
 d Force =-0.1015519E+01[-0.102E+01,-0.101E+01]  d Ewald  =-0.1015519E+01 0.608E-07


--------------------------------------------------------------------------------------------------------


    POTLOK:  cpu time    0.8300: real time    0.8326


--------------------------------------------------------------------------------------------------------


 stress matrix after NEB project (eV)
    -32.55583     -0.02787      0.36350
     -0.02787    -32.99169     -0.23329
      0.36350     -0.23329    -24.60414
  FORCES: max atom, RMS     0.046557    0.009718
  FORCE total and by dimension    0.161447    0.045876
  Stress total and by dimension   52.479253   32.991692
 Quasi-Newton relaxation of ions (Broydens 2nd method)
  g(Force)  = 0.126E-02   g(Stress)= 0.000E+00

 retain information from N=  3 steps
 eigenvalues of (default step * inverse Hessian matrix)
  average eigenvalue of G=   1.6802
 eigenvalue spectrum of G is  4.6200  0.2103  0.2103


--------------------------------------------------------------------------------------------------------


  
 reached required accuracy - stopping structural energy minimisation
     LOOP+:  cpu time  178.1071: real time  178.8110
    4ORBIT:  cpu time    0.0000: real time    0.0000

 total amount of memory used by VASP MPI-rank0   697387. kBytes
=======================================================================

   base      :      30000. kBytes
   nonlr-proj:      16951. kBytes
   fftplans  :      30982. kBytes
   grid      :      57864. kBytes
   one-center:       1073. kBytes
   wavefun   :     560517. kBytes

  
  
 General timing and accounting informations for this job:
 ========================================================
  
                  Total CPU time used (sec):     2648.913
                            User time (sec):     2643.901
                          System time (sec):        5.012
                         Elapsed time (sec):     2659.997
  
                   Maximum memory used (kb):     1005848.
                   Average memory used (kb):           0.
  
                          Minor page faults:      6335947
                          Major page faults:          204
                 Voluntary context switches:         7229
