 vasp.5.4.4.18Apr17-6-g9f103f2a35 (build Oct 20 2021 08:33:53) complex           
 executed on             LinuxGNU date 2024.04.14  17:12:32
 running on   64 total cores
 each image running on    8 cores
 distrk:  each k-point on    8 cores,    1 groups
 distr:  one band on NCORES_PER_BAND=   4 cores,    2 groups


--------------------------------------------------------------------------------------------------------


 INCAR:
 POTCAR:    PAW_PBE C 08Apr2002                   
 POTCAR:    PAW_PBE H 15Jun2001                   
 POTCAR:    PAW_PBE O 08Apr2002                   
 POTCAR:    PAW_PBE Si 05Jan2001                  
 POTCAR:    PAW_PBE W 08Apr2002                   
 POTCAR:    PAW_PBE C 08Apr2002                   
   VRHFIN =C: s2p2                                                              
   LEXCH  = PE                                                                  
   EATOM  =   147.1560 eV,   10.8157 Ry                                         
                                                                                
   TITEL  = PAW_PBE C 08Apr2002                                                 
   LULTRA =        F    use ultrasoft PP ?                                      
   IUNSCR =        1    unscreen: 0-lin 1-nonlin 2-no                           
   RPACOR =    1.200    partial core radius                                     
   POMASS =   12.011; ZVAL   =    4.000    mass and valenz                      
   RCORE  =    1.500    outmost cutoff radius                                   
   RWIGS  =    1.630; RWIGS  =    0.863    wigner-seitz radius (au A)           
   ENMAX  =  400.000; ENMIN  =  300.000 eV                                      
   ICORE  =        2    local potential                                         
   LCOR   =        T    correct aug charges                                     
   LPAW   =        T    paw PP                                                  
   EAUG   =  644.873                                                            
   DEXC   =    0.000                                                            
   RMAX   =    1.529    core radius for proj-oper                               
   RAUG   =    1.300    factor for augmentation sphere                          
   RDEP   =    1.501    radius for radial grids                                 
   RDEPT  =    1.300    core radius for aug-charge                              
                                                                                
   Atomic configuration                                                         
    4 entries                                                                   
     n  l   j            E        occ.                                          
     1  0  0.50      -273.3789   2.0000                                         
     2  0  0.50       -13.7508   2.0000                                         
     2  1  0.50        -5.2854   2.0000                                         
     3  2  1.50        -5.4423   0.0000                                         
   Description                                                                  
     l       E           TYP  RCUT    TYP  RCUT                                 
     0    -13.7508458     23  1.200                                             
     0     -8.2022199     23  1.200                                             
     1     -5.2854383     23  1.500                                             
     1     34.0145650     23  1.500                                             
     2     -5.4423304      7  1.500                                             
  local pseudopotential read in
  partial core-charges read in
  partial kinetic energy density read in
  atomic valenz-charges read in
  non local Contribution for L=           0  read in
    real space projection operators read in
  non local Contribution for L=           0  read in
    real space projection operators read in
  non local Contribution for L=           1  read in
    real space projection operators read in
  non local Contribution for L=           1  read in
    real space projection operators read in
    PAW grid and wavefunctions read in

   number of l-projection  operators is LMAX  =           4
   number of lm-projection operators is LMMAX =           8

 POTCAR:    PAW_PBE H 15Jun2001                   
   VRHFIN =H: ultrasoft test                                                    
   LEXCH  = PE                                                                  
   EATOM  =    12.4884 eV,    0.9179 Ry                                         
                                                                                
   TITEL  = PAW_PBE H 15Jun2001                                                 
   LULTRA =        F    use ultrasoft PP ?                                      
   IUNSCR =        0    unscreen: 0-lin 1-nonlin 2-no                           
   RPACOR =    0.000    partial core radius                                     
   POMASS =    1.000; ZVAL   =    1.000    mass and valenz                      
   RCORE  =    1.100    outmost cutoff radius                                   
   RWIGS  =    0.700; RWIGS  =    0.370    wigner-seitz radius (au A)           
   ENMAX  =  250.000; ENMIN  =  200.000 eV                                      
   RCLOC  =    0.701    cutoff for local pot                                    
   LCOR   =        T    correct aug charges                                     
   LPAW   =        T    paw PP                                                  
   EAUG   =  400.000                                                            
   RMAX   =    1.123    core radius for proj-oper                               
   RAUG   =    1.200    factor for augmentation sphere                          
   RDEP   =    1.112    radius for radial grids                                 
   RDEPT  =    0.926    core radius for aug-charge                              
                                                                                
   Atomic configuration                                                         
    2 entries                                                                   
     n  l   j            E        occ.                                          
     1  0  0.50        -6.4927   1.0000                                         
     2  1  0.50        -3.4015   0.0000                                         
   Description                                                                  
     l       E           TYP  RCUT    TYP  RCUT                                 
     0     -6.4927494     23  1.100                                             
     0      6.8029130     23  1.100                                             
     1     -4.0817478     23  1.100                                             
  local pseudopotential read in
  atomic valenz-charges read in
  non local Contribution for L=           0  read in
    real space projection operators read in
  non local Contribution for L=           0  read in
    real space projection operators read in
  non local Contribution for L=           1  read in
    real space projection operators read in
    PAW grid and wavefunctions read in

   number of l-projection  operators is LMAX  =           3
   number of lm-projection operators is LMMAX =           5

 POTCAR:    PAW_PBE O 08Apr2002                   
   VRHFIN =O: s2p4                                                              
   LEXCH  = PE                                                                  
   EATOM  =   432.3788 eV,   31.7789 Ry                                         
                                                                                
   TITEL  = PAW_PBE O 08Apr2002                                                 
   LULTRA =        F    use ultrasoft PP ?                                      
   IUNSCR =        1    unscreen: 0-lin 1-nonlin 2-no                           
   RPACOR =    1.200    partial core radius                                     
   POMASS =   16.000; ZVAL   =    6.000    mass and valenz                      
   RCORE  =    1.520    outmost cutoff radius                                   
   RWIGS  =    1.550; RWIGS  =    0.820    wigner-seitz radius (au A)           
   ENMAX  =  400.000; ENMIN  =  300.000 eV                                      
   ICORE  =        2    local potential                                         
   LCOR   =        T    correct aug charges                                     
   LPAW   =        T    paw PP                                                  
   EAUG   =  605.392                                                            
   DEXC   =    0.000                                                            
   RMAX   =    1.553    core radius for proj-oper                               
   RAUG   =    1.300    factor for augmentation sphere                          
   RDEP   =    1.550    radius for radial grids                                 
   RDEPT  =    1.329    core radius for aug-charge                              
                                                                                
   Atomic configuration                                                         
    4 entries                                                                   
     n  l   j            E        occ.                                          
     1  0  0.50      -514.6923   2.0000                                         
     2  0  0.50       -23.9615   2.0000                                         
     2  1  0.50        -9.0305   4.0000                                         
     3  2  1.50        -9.5241   0.0000                                         
   Description                                                                  
     l       E           TYP  RCUT    TYP  RCUT                                 
     0    -23.9615318     23  1.200                                             
     0     -9.5240782     23  1.200                                             
     1     -9.0304911     23  1.520                                             
     1      8.1634956     23  1.520                                             
     2     -9.5240782      7  1.500                                             
  local pseudopotential read in
  partial core-charges read in
  partial kinetic energy density read in
  kinetic energy density of atom read in
  atomic valenz-charges read in
  non local Contribution for L=           0  read in
    real space projection operators read in
  non local Contribution for L=           0  read in
    real space projection operators read in
  non local Contribution for L=           1  read in
    real space projection operators read in
  non local Contribution for L=           1  read in
    real space projection operators read in
    PAW grid and wavefunctions read in

   number of l-projection  operators is LMAX  =           4
   number of lm-projection operators is LMMAX =           8

 POTCAR:    PAW_PBE Si 05Jan2001                  
   VRHFIN =Si: s2p2                                                             
   LEXCH  = PE                                                                  
   EATOM  =   103.0669 eV,    7.5752 Ry                                         
                                                                                
   TITEL  = PAW_PBE Si 05Jan2001                                                
   LULTRA =        F    use ultrasoft PP ?                                      
   IUNSCR =        1    unscreen: 0-lin 1-nonlin 2-no                           
   RPACOR =    1.500    partial core radius                                     
   POMASS =   28.085; ZVAL   =    4.000    mass and valenz                      
   RCORE  =    1.900    outmost cutoff radius                                   
   RWIGS  =    2.480; RWIGS  =    1.312    wigner-seitz radius (au A)           
   ENMAX  =  245.345; ENMIN  =  184.009 eV                                      
   ICORE  =        2    local potential                                         
   LCOR   =        T    correct aug charges                                     
   LPAW   =        T    paw PP                                                  
   EAUG   =  322.069                                                            
   DEXC   =    0.000                                                            
   RMAX   =    1.950    core radius for proj-oper                               
   RAUG   =    1.300    factor for augmentation sphere                          
   RDEP   =    1.993    radius for radial grids                                 
   RDEPT  =    1.837    core radius for aug-charge                              
                                                                                
   Atomic configuration                                                         
    6 entries                                                                   
     n  l   j            E        occ.                                          
     1  0  0.50     -1785.8828   2.0000                                         
     2  0  0.50      -139.4969   2.0000                                         
     2  1  1.50       -95.5546   6.0000                                         
     3  0  0.50       -10.8127   2.0000                                         
     3  1  0.50        -4.0811   2.0000                                         
     3  2  1.50        -4.0817   0.0000                                         
   Description                                                                  
     l       E           TYP  RCUT    TYP  RCUT                                 
     0    -10.8127223     23  1.900                                             
     0     -7.6451159     23  1.900                                             
     1     -4.0811372     23  1.900                                             
     1      2.4879257     23  1.900                                             
     2     -4.0817478      7  1.900                                             
  local pseudopotential read in
  partial core-charges read in
  partial kinetic energy density read in
  atomic valenz-charges read in
  non local Contribution for L=           0  read in
    real space projection operators read in
  non local Contribution for L=           0  read in
    real space projection operators read in
  non local Contribution for L=           1  read in
    real space projection operators read in
  non local Contribution for L=           1  read in
    real space projection operators read in
    PAW grid and wavefunctions read in

   number of l-projection  operators is LMAX  =           4
   number of lm-projection operators is LMMAX =           8

 POTCAR:    PAW_PBE W 08Apr2002                   
   VRHFIN =W : 6s5d                                                             
   LEXCH  = PE                                                                  
   EATOM  =   204.6103 eV,   15.0384 Ry                                         
                                                                                
   TITEL  = PAW_PBE W 08Apr2002                                                 
   LULTRA =        F    use ultrasoft PP ?                                      
   IUNSCR =        1    unscreen: 0-lin 1-nonlin 2-no                           
   RPACOR =    2.330    partial core radius                                     
   POMASS =  183.850; ZVAL   =    6.000    mass and valenz                      
   RCORE  =    2.750    outmost cutoff radius                                   
   RWIGS  =    2.750; RWIGS  =    1.455    wigner-seitz radius (au A)           
   ENMAX  =  223.057; ENMIN  =  167.293 eV                                      
   RCLOC  =    2.147    cutoff for local pot                                    
   LCOR   =        T    correct aug charges                                     
   LPAW   =        T    paw PP                                                  
   EAUG   =  373.438                                                            
   DEXC   =    0.000                                                            
   RMAX   =    2.801    core radius for proj-oper                               
   RAUG   =    1.300    factor for augmentation sphere                          
   RDEP   =    2.886    radius for radial grids                                 
   RDEPT  =    2.230    core radius for aug-charge                              
                                                                                
   Atomic configuration                                                         
   16 entries                                                                   
     n  l   j            E        occ.                                          
     1  0  0.50    -69465.5836   2.0000                                         
     2  0  0.50    -11986.2642   2.0000                                         
     2  1  1.50    -10479.8616   6.0000                                         
     3  0  0.50     -2759.0758   2.0000                                         
     3  1  1.50     -2313.1857   6.0000                                         
     3  2  2.50     -1801.1185  10.0000                                         
     4  0  0.50      -567.6791   2.0000                                         
     4  1  1.50      -421.4694   6.0000                                         
     4  2  2.50      -236.3473  10.0000                                         
     4  3  3.50       -31.2666  14.0000                                         
     5  0  0.50       -77.1085   2.0000                                         
     5  1  1.50       -41.3856   6.0000                                         
     5  2  2.50        -3.3185   5.0000                                         
     6  0  0.50        -5.1438   1.0000                                         
     6  1  0.50        -3.8096   0.0000                                         
     5  3  2.50        -1.3606   0.0000                                         
   Description                                                                  
     l       E           TYP  RCUT    TYP  RCUT                                 
     2     -3.3185288     23  2.500                                             
     2     -1.5965414     23  2.500                                             
     0     -5.1438054     23  2.500                                             
     0      4.9117504     23  2.500                                             
     1      2.7211652     23  2.750                                             
     1     27.2116520     23  2.750                                             
  local pseudopotential read in
  partial core-charges read in
  partial kinetic energy density read in
  atomic valenz-charges read in
  non local Contribution for L=           2  read in
    real space projection operators read in
  non local Contribution for L=           2  read in
    real space projection operators read in
  non local Contribution for L=           0  read in
    real space projection operators read in
  non local Contribution for L=           0  read in
    real space projection operators read in
  non local Contribution for L=           1  read in
    real space projection operators read in
  non local Contribution for L=           1  read in
    real space projection operators read in
    PAW grid and wavefunctions read in

   number of l-projection  operators is LMAX  =           6
   number of lm-projection operators is LMMAX =          18

 Optimization of the real space projectors (new method)

 maximal supplied QI-value         = 25.13
 optimisation between [QCUT,QGAM] = [ 11.31, 22.87] = [ 35.82,146.48] Ry 
 Optimized for a Real-space Cutoff    1.00 Angstroem

   l    n(q)    QCUT    max X(q) W(low)/X(q) W(high)/X(q)  e(spline) 
   0      7    11.310   115.676    0.43E-03    0.13E-02    0.19E-06
   0      7    11.310    87.132    0.43E-03    0.13E-02    0.18E-06
   1      6    11.310     4.429    0.42E-03    0.74E-03    0.11E-06
   1      6    11.310     2.733    0.34E-03    0.55E-03    0.92E-07
 Optimization of the real space projectors (new method)

 maximal supplied QI-value         = 34.20
 optimisation between [QCUT,QGAM] = [ 11.29, 22.57] = [ 35.68,142.71] Ry 
 Optimized for a Real-space Cutoff    1.16 Angstroem

   l    n(q)    QCUT    max X(q) W(low)/X(q) W(high)/X(q)  e(spline) 
   0      8    11.287    19.460    0.40E-03    0.73E-03    0.16E-06
   0      8    11.287    12.209    0.38E-03    0.70E-03    0.15E-06
   1      7    11.287     4.655    0.22E-03    0.25E-04    0.22E-06
 Optimization of the real space projectors (new method)

 maximal supplied QI-value         = 24.76
 optimisation between [QCUT,QGAM] = [ 11.39, 22.77] = [ 36.31,145.25] Ry 
 Optimized for a Real-space Cutoff    1.00 Angstroem

   l    n(q)    QCUT    max X(q) W(low)/X(q) W(high)/X(q)  e(spline) 
   0      7    11.387    20.381    0.39E-03    0.13E-02    0.15E-06
   0      7    11.387    15.268    0.42E-03    0.14E-02    0.17E-06
   1      6    11.387     5.964    0.41E-03    0.11E-02    0.17E-06
   1      6    11.387     5.382    0.39E-03    0.87E-03    0.15E-06
 Optimization of the real space projectors (new method)

 maximal supplied QI-value         = 19.84
 optimisation between [QCUT,QGAM] = [ 11.31, 22.82] = [ 35.82,145.81] Ry 
 Optimized for a Real-space Cutoff    1.16 Angstroem

   l    n(q)    QCUT    max X(q) W(low)/X(q) W(high)/X(q)  e(spline) 
   0      8    11.310   159.560    0.27E-03    0.30E-03    0.39E-07
   0      8    11.310   115.863    0.27E-03    0.30E-03    0.38E-07
   1      7    11.310    88.339    0.28E-03    0.28E-03    0.77E-07
   1      7    11.310    48.592    0.27E-03    0.27E-03    0.74E-07
 Optimization of the real space projectors (new method)

 maximal supplied QI-value         = 13.61
 optimisation between [QCUT,QGAM] = [ 11.43, 22.86] = [ 36.58,146.31] Ry 
 Optimized for a Real-space Cutoff    1.56 Angstroem

   l    n(q)    QCUT    max X(q) W(low)/X(q) W(high)/X(q)  e(spline) 
   2     10    11.429   130.855    0.22E-03    0.64E-03    0.11E-05
   2     10    11.429   114.007    0.22E-03    0.64E-03    0.11E-05
   0     11    11.429    84.709    0.39E-04    0.67E-04    0.23E-06
   0     11    11.429    49.163    0.35E-04    0.62E-04    0.21E-06
   1     10    11.429    15.765    0.84E-04    0.15E-03    0.24E-06
   1     10    11.429    10.638    0.58E-04    0.12E-03    0.19E-06

 ----------------------------------------------------------------------------- 
|                                                                             |
|  ADVICE TO THIS USER RUNNING 'VASP/VAMP'   (HEAR YOUR MASTER'S VOICE ...):  |
|                                                                             |
|      You enforced a specific xc-type in the INCAR file,                     |
|      a different type was found on the POTCAR file                          |
|          I HOPE YOU KNOW, WHAT YOU ARE  DOING                               |
|                                                                             |
 ----------------------------------------------------------------------------- 

  PAW_PBE C 08Apr2002                   :
 energy of atom  1       EATOM= -147.1560
 kinetic energy error for atom=    0.0076 (will be added to EATOM!!)
  PAW_PBE H 15Jun2001                   :
 energy of atom  2       EATOM=  -12.4884
 kinetic energy error for atom=    0.0020 (will be added to EATOM!!)
  PAW_PBE O 08Apr2002                   :
 energy of atom  3       EATOM= -432.3788
 kinetic energy error for atom=    0.0224 (will be added to EATOM!!)
  PAW_PBE Si 05Jan2001                  :
 energy of atom  4       EATOM= -103.0669
 kinetic energy error for atom=    0.0006 (will be added to EATOM!!)
  PAW_PBE W 08Apr2002                   :
 energy of atom  5       EATOM= -204.6103
 kinetic energy error for atom=    0.0017 (will be added to EATOM!!)


 POSCAR:  C  H  O Si  W                          
  positions in direct lattice
  velocities in cartesian coordinates
 exchange correlation table for  LEXCH =        9
   RHO(1)=    0.500       N(1)  =     2000
   RHO(2)=  100.500       N(2)  =     4000

 VTST: version 3.2, (02/03/18)

 CHAIN: initializing optimizer
 
 OPT: Using LBFGS optimizer
 OPT: LBFGS, Init
 OPT: LBFGS, MEMORY             20
 OPT: LBFGS, IMAGES              8
 OPT: LBFGS, MAXMOVE      0.200000
 OPT: LBFGS, LGLOBAL      T
 OPT: LBFGS, INVCURV      0.010000
 OPT: LBFGS, LLINEOPT      F
 OPT: LBFGS, FDSTEP       0.005000
 OPT: LBFGS, LAUTOSCALE      T
 OPT: LBFGS, DAMPING      2.000000
 
 CHAIN: Read ICHAIN            0
 CHAIN: Running the NEB
 NEB:          SPRING     -5.000000
 NEB:          LCLIMB      T
 NEB:     LTANGENTOLD      F
 NEB:           LDNEB      F
 NEB:        LDNEBORG      F
 NEB:        LNEBCELL      F
 NEB:          EFIRST      0.000000
 NEB:           ELAST      0.000000

 POSCAR:  C  H  O Si  W                          
  positions in cartesian coordinates
  No initial velocities read in

 POSCAR:  C  H  O Si  W                          
  positions in cartesian coordinates
  No initial velocities read in



--------------------------------------------------------------------------------------------------------


 ion  position               nearest neighbor table
   1  0.559  0.525  0.732-  48 1.09  47 1.10 271 1.92
   2  0.553  0.363  0.734-  49 1.11  50 1.11 204 1.24
   3  0.763  0.100  0.652- 125 0.97
   4  0.926  0.279  0.356-  73 0.98
   5  0.793  0.207  0.373- 108 0.97
   6  0.975  0.944  0.325- 117 0.97
   7  0.626  0.963  0.375- 119 0.98
   8  0.821  0.995  0.369- 137 0.97
   9  0.750  0.141  0.458- 175 0.98
  10  0.916  0.249  0.509- 180 0.97
  11  0.583  0.304  0.306- 185 0.97
  12  0.891  0.335  0.616-  91 0.98
  13  0.576  0.342  0.622- 136 0.97
  14  0.593  0.871  0.578- 178 0.99
  15  0.034  0.338  0.652- 184 0.97
  16  0.935  0.420  0.454- 173 0.98
  17  0.746  0.530  0.422-  87 1.00
  18  0.797  0.381  0.634- 165 0.97
  19  0.591  0.569  0.378-  99 0.99
  20  0.718  0.646  0.383- 122 0.99
  21  0.841  0.542  0.420- 128 0.98
  22  0.005  0.604  0.358- 133 0.97
  23  0.828  0.712  0.468- 174 0.99
  24  0.881  0.600  0.720-  53 0.97
  25  0.520  0.986  0.422- 135 0.99
  26  0.223  0.980  0.393- 176 1.00
  27  0.216  0.238  0.319- 191 0.99
  28  0.158  0.330  0.279- 182 0.97
  29  0.342  0.156  0.331- 183 0.98
  30  0.223  0.046  0.323- 190 0.97
  31  0.511  0.825  0.547- 193 0.97
  32  0.368  0.232  0.646-  78 0.97
  33  0.244  0.093  0.598- 129 0.98
  34  0.315  0.487  0.442-  52 0.99
  35  0.409  0.439  0.406- 141 0.98
  36  0.398  0.793  0.389- 179 0.97
  37  0.244  0.655  0.294- 187 0.97
  38  0.312  0.418  0.369- 188 0.98
  39  0.405  0.584  0.339- 189 0.97
  40  0.139  0.488  0.352- 181 0.98
  41  0.593  0.698  0.352-  82 0.97
  42  0.469  0.861  0.444- 192 0.99
  43  0.122  0.323  0.611- 101 0.97
  44  0.074  0.664  0.646- 132 0.97
  45  0.239  0.389  0.683- 177 0.97
  46  0.246  0.815  0.670- 186 0.97
  47  0.596  0.544  0.710-   1 1.10
  48  0.564  0.527  0.772-   1 1.09
  49  0.538  0.384  0.771-   2 1.11
  50  0.596  0.336  0.732-   2 1.11
  51  0.369  0.648  0.439- 225 1.66 260 1.68
  52  0.347  0.504  0.420-  34 0.99 260 1.67
  53  0.861  0.568  0.697-  24 0.97 231 1.64
  54  0.349  0.958  0.530- 236 1.68 269 1.69
  55  0.033  0.933  0.529- 251 1.63 262 1.66
  56  0.636  0.079  0.489- 229 1.60 218 1.65
  57  0.069  0.052  0.395- 217 1.64 209 1.65
  58  0.452  0.130  0.421- 234 1.65 215 1.65
  59  0.806  0.214  0.483- 233 1.67 230 1.69
  60  0.973  0.181  0.599- 211 1.63 241 1.65
  61  0.275  0.299  0.449- 257 1.65 267 1.66
  62  0.556  0.775  0.442- 238 1.51 265 1.66
  63  0.392  0.973  0.619- 255 1.65 269 1.66
  64  0.178  0.350  0.405- 257 1.66 232 1.67
  65  0.867  0.684  0.637- 235 1.64 231 1.65
  66  0.866  0.967  0.467- 227 1.60 242 1.65
  67  0.301  0.761  0.458- 225 1.65 239 1.67
  68  0.422  0.261  0.380- 234 1.67 254 1.67
  69  0.811  0.465  0.520- 261 1.63 208 1.64
  70  0.984  0.073  0.521- 251 1.68 211 1.69
  71  0.512  0.466  0.627- 270 1.65 271 1.98
  72  0.035  0.920  0.429- 262 1.64 209 1.65
  73  0.963  0.303  0.351-   4 0.98 210 1.65
  74  0.070  0.336  0.376- 210 1.64 232 1.65
  75  0.208  0.729  0.395- 239 1.66 249 1.67
  76  0.039  0.419  0.499- 264 1.64 237 1.65
  77  0.240  0.286  0.588- 245 1.63 222 1.63
  78  0.397  0.194  0.644-  32 0.97 216 1.64
  79  0.454  0.564  0.579- 270 1.68 247 1.68
  80  0.910  0.749  0.557- 235 1.64 214 1.65
  81  0.869  0.108  0.442- 242 1.64 230 1.65
  82  0.573  0.667  0.376-  41 0.97 238 1.68
  83  0.142  0.159  0.376- 263 1.65 217 1.65
  84  0.350  0.766  0.607- 207 1.62 248 1.64
  85  0.911  0.845  0.483- 227 1.62 214 1.66
  86  0.061  0.537  0.442- 264 1.66 206 1.67
  87  0.708  0.555  0.420-  17 1.00 220 1.67
  88  0.075  0.817  0.483- 262 1.50 244 1.65
  89  0.700  0.828  0.433- 219 1.53 252 1.65
  90  0.730  0.049  0.543- 253 1.64 218 1.64
  91  0.919  0.302  0.632-  12 0.98 241 1.63
  92  0.735  0.853  0.613- 226 1.66 223 1.68
  93  0.625  0.527  0.486- 228 1.58 220 1.68
  94  0.557  0.630  0.467- 238 1.52 228 1.63
  95  0.425  0.247  0.555- 216 1.68 259 1.68
  96  0.978  0.728  0.477- 244 1.65 214 1.65
  97  0.654  0.594  0.634- 266 1.64 212 1.67
  98  0.397  0.746  0.515- 207 1.66 225 1.66
  99  0.603  0.518  0.386-  19 0.99 220 1.65
 100  0.720  0.631  0.557- 250 1.63 266 1.64
 101  0.147  0.364  0.620-  43 0.97 222 1.64
 102  0.066  0.549  0.542- 264 1.63 268 1.64
 103  0.819  0.885  0.537- 227 1.65 226 1.66
 104  0.828  0.355  0.452- 233 1.65 208 1.65
 105  0.527  0.298  0.534- 259 1.62 240 1.63
 106  0.737  0.499  0.596- 266 1.65 261 1.66
 107  0.557  0.172  0.395- 246 1.59 215 1.64
 108  0.806  0.256  0.383-   5 0.97 233 1.67
 109  0.237  0.953  0.508- 236 1.58 221 1.67
 110  0.693  0.776  0.541- 250 1.63 223 1.64
 111  0.924  0.950  0.553- 251 1.65 227 1.66
 112  0.526  0.318  0.399- 246 1.45 254 1.66
 113  0.469  0.990  0.546- 255 1.69 256 1.70
 114  0.838  0.095  0.540- 230 1.66 253 1.66
 115  0.538  0.116  0.486- 229 1.60 215 1.67
 116  0.350  0.187  0.440- 267 1.63 234 1.65
 117  0.012  0.962  0.335-   6 0.97 209 1.65
 118  0.457  0.587  0.674- 247 1.65 271 1.95
 119  0.655  0.925  0.379-   7 0.98 219 1.66
 120  0.076  0.686  0.436- 206 1.65 244 1.66
 121  0.452  0.405  0.553- 270 1.68 259 1.70
 122  0.719  0.700  0.380-  20 0.99 252 1.65
 123  0.450  0.704  0.601- 207 1.63 247 1.64
 124  0.753  0.709  0.476- 250 1.63 252 1.69
 125  0.779  0.120  0.622-   3 0.97 253 1.64
 126  0.993  0.308  0.448- 237 1.66 210 1.68
 127  0.533  0.508  0.530- 270 1.64 228 1.65
 128  0.817  0.499  0.423-  21 0.98 208 1.69
 129  0.236  0.145  0.605-  33 0.98 245 1.62
 130  0.204  0.831  0.471- 221 1.50 239 1.63
 131  0.240  0.559  0.523- 224 1.65 213 1.66
 132  0.061  0.625  0.624-  44 0.97 268 1.64
 133  0.046  0.602  0.354-  22 0.97 206 1.65
 134  0.801  0.979  0.606- 226 1.66 253 1.68
 135  0.538  0.028  0.405-  25 0.99 215 1.66
 136  0.607  0.316  0.604-  13 0.97 240 1.64
 137  0.862  0.004  0.369-   8 0.97 242 1.66
 138  0.095  0.149  0.467- 243 1.62 217 1.65
 139  0.171  0.204  0.531- 243 1.61 245 1.63
 140  0.641  0.704  0.455- 238 1.65 252 1.66
 141  0.437  0.410  0.386-  35 0.98 254 1.66
 142  0.574  0.059  0.571- 256 1.62 229 1.65
 143  0.151  0.593  0.389- 249 1.68 206 1.68
 144  0.268  0.602  0.392- 260 1.65 249 1.67
 145  0.440  0.322  0.470- 259 1.64 254 1.69
 146  0.238  0.159  0.430- 263 1.65 267 1.67
 147  0.073  0.150  0.563- 243 1.64 211 1.64
 148  0.845  0.544  0.600- 231 1.66 261 1.66
 149  0.621  0.280  0.411- 258 1.65 246 1.66
 150  0.603  0.892  0.467- 265 1.29 219 1.67
 151  0.031  0.195  0.389- 210 1.66 217 1.66
 152  0.608  0.196  0.547- 229 1.62 240 1.64
 153  0.133  0.938  0.479- 262 1.65 221 1.66
 154  0.080  0.280  0.512- 237 1.64 243 1.65
 155  0.372  0.104  0.567- 269 1.64 216 1.69
 156  0.067  0.697  0.536- 244 1.63 268 1.63
 157  0.666  0.415  0.430- 220 1.65 258 1.65
 158  0.799  0.730  0.564- 250 1.61 235 1.63
 159  0.704  0.957  0.470- 218 1.65 219 1.66
 160  0.598  0.634  0.553- 228 1.63 212 1.63
 161  0.723  0.294  0.452- 233 1.63 258 1.64
 162  0.978  0.314  0.547- 237 1.64 241 1.67
 163  0.158  0.630  0.570- 224 1.63 268 1.65
 164  0.633  0.327  0.508- 240 1.62 258 1.65
 165  0.820  0.396  0.606-  18 0.97 261 1.65
 166  0.959  0.027  0.417- 242 1.64 209 1.65
 167  0.282  0.195  0.519- 267 1.63 245 1.65
 168  0.249  0.443  0.461- 213 1.66 257 1.71
 169  0.272  0.850  0.569- 236 1.64 248 1.65
 170  0.204  0.686  0.487- 224 1.63 239 1.66
 171  0.147  0.476  0.493- 213 1.63 264 1.65
 172  0.225  0.422  0.557- 213 1.61 222 1.63
 173  0.911  0.453  0.474-  16 0.98 208 1.65
 174  0.870  0.705  0.464-  23 0.99 214 1.65
 175  0.738  0.093  0.445-   9 0.98 218 1.66
 176  0.222  0.930  0.408-  26 1.00 221 1.64
 177  0.251  0.402  0.650-  45 0.97 222 1.65
 178  0.630  0.883  0.593-  14 0.99 223 1.62
 179  0.410  0.789  0.423-  36 0.97 225 1.68
 180  0.918  0.196  0.508-  10 0.97 230 1.65
 181  0.133  0.444  0.332-  40 0.98 232 1.65
 182  0.155  0.304  0.311-  28 0.97 232 1.69
 183  0.373  0.131  0.348-  29 0.98 234 1.66
 184  0.034  0.292  0.634-  15 0.97 241 1.66
 185  0.573  0.257  0.320-  11 0.97 246 1.66
 186  0.245  0.770  0.650-  46 0.97 248 1.64
 187  0.207  0.648  0.310-  37 0.97 249 1.65
 188  0.275  0.392  0.367-  38 0.98 257 1.66
 189  0.365  0.598  0.342-  39 0.97 260 1.67
 190  0.226  0.056  0.358-  30 0.97 263 1.69
 191  0.241  0.196  0.329-  27 0.99 263 1.66
 192  0.501  0.892  0.455-  42 0.99 265 1.60
 193  0.550  0.828  0.534-  31 0.97 265 1.67
 194  0.545  0.647  0.633- 212 1.64 247 1.67
 195  0.478  0.122  0.596- 216 1.65 256 1.66
 196  0.262  0.694  0.569- 248 1.65 224 1.65
 197  0.443  0.847  0.582- 255 1.65 207 1.69
 198  0.766  0.617  0.649- 266 1.65 231 1.66
 199  0.845  0.832  0.623- 235 1.66 226 1.68
 200  0.640  0.740  0.621- 212 1.67 223 1.71
 201  0.008  0.033  0.603- 251 1.69 211 1.69
 202  0.285  0.002  0.593- 269 1.69 236 1.70
 203  0.503  0.972  0.628- 255 1.69 256 1.70
 204  0.522  0.365  0.697-   2 1.24 271 2.46
 205  0.445  0.466  0.741- 271 1.72
 206  0.083  0.606  0.406- 133 1.65 120 1.65  86 1.67 143 1.68 264 3.13
 207  0.409  0.765  0.575-  84 1.62 123 1.63  98 1.66 197 1.69 248 3.06
 208  0.842  0.441  0.468-  69 1.64 104 1.65 173 1.65 128 1.69
 209  0.017  0.990  0.394-  57 1.65 166 1.65  72 1.65 117 1.65 262 3.11 217 3.13
 210  0.015  0.284  0.391-  74 1.64  73 1.65 151 1.66 126 1.68 237 3.11 217 3.11
 211  0.009  0.115  0.573-  60 1.63 147 1.64  70 1.69 201 1.69 251 2.39 243 3.05 241 3.07
 212  0.609  0.658  0.611- 160 1.63 194 1.64  97 1.67 200 1.67 266 2.87
 213  0.214  0.476  0.510- 172 1.61 171 1.63 131 1.66 168 1.66 224 3.10 257 3.14
 214  0.915  0.756  0.496-  96 1.65 174 1.65  80 1.65  85 1.66 227 2.99 235 3.03
 215  0.521  0.110  0.426- 107 1.64  58 1.65 135 1.66 115 1.67 246 3.08 229 3.12
 216  0.418  0.169  0.588-  78 1.64 195 1.65  95 1.68 155 1.69 269 3.13 256 3.14
 217  0.083  0.139  0.407-  57 1.64 138 1.65  83 1.65 151 1.66 210 3.11 209 3.13 263 3.14
 218  0.702  0.045  0.487-  90 1.64 159 1.65  56 1.65 175 1.66 229 3.09 219 3.10
 219  0.665  0.898  0.437-  89 1.53 159 1.66 119 1.66 150 1.67 265 2.83 252 3.06 218 3.10
 220  0.650  0.504  0.430-  99 1.65 157 1.65  87 1.67  93 1.68 228 3.07
 221  0.198  0.912  0.464- 130 1.50 176 1.64 153 1.66 109 1.67 239 3.01 236 3.06 262 3.07
 222  0.214  0.366  0.604-  77 1.63 172 1.63 101 1.64 177 1.65
 223  0.674  0.814  0.595- 178 1.62 110 1.64  92 1.68 200 1.71 250 2.90
 224  0.217  0.642  0.538- 170 1.63 163 1.63 196 1.65 131 1.65 239 3.09 213 3.10 268 3.12
 225  0.369  0.735  0.459-  67 1.65  98 1.66  51 1.66 179 1.68
 226  0.797  0.888  0.596- 134 1.66  92 1.66 103 1.66 199 1.68 235 2.86 227 2.99 253 3.15
 227  0.880  0.912  0.512-  66 1.60  85 1.62 103 1.65 111 1.66 214 2.99 226 2.99 251 3.05 242 3.13

 228  0.576  0.574  0.512-  93 1.58 160 1.63  94 1.63 127 1.65 238 3.00 220 3.07 270 3.14
 229  0.590  0.116  0.525-  56 1.60 115 1.60 152 1.62 142 1.65 256 2.85 218 3.09 215 3.12 240 3.13

 230  0.858  0.152  0.495- 180 1.65  81 1.65 114 1.66  59 1.69 242 3.07 233 3.15
 231  0.835  0.604  0.646-  53 1.64  65 1.65 198 1.66 148 1.66 266 2.93 235 3.00 261 3.01
 232  0.134  0.360  0.357- 181 1.65  74 1.65  64 1.67 182 1.69 257 3.11
 233  0.791  0.280  0.442- 161 1.63 104 1.65 108 1.67  59 1.67 230 3.15
 234  0.399  0.177  0.396-  58 1.65 116 1.65 183 1.66  68 1.67 254 3.07
 235  0.856  0.750  0.596- 158 1.63  80 1.64  65 1.64 199 1.66 226 2.86 231 3.00 214 3.03
 236  0.283  0.934  0.550- 109 1.58 169 1.64  54 1.68 202 1.70 269 2.38 221 3.06
 237  0.023  0.330  0.502- 154 1.64 162 1.64  76 1.65 126 1.66 210 3.11 241 3.11 243 3.13
 238  0.575  0.695  0.436-  62 1.51  94 1.52 140 1.65  82 1.68 228 3.00 265 3.06 252 3.10
 239  0.230  0.753  0.452- 130 1.63 170 1.66  75 1.66  67 1.67 249 2.97 221 3.01 224 3.09
 240  0.594  0.285  0.548- 164 1.62 105 1.63 136 1.64 152 1.64 229 3.13
 241  0.975  0.272  0.603-  91 1.63  60 1.65 184 1.66 162 1.67 211 3.07 237 3.11
 242  0.889  0.025  0.424-  81 1.64 166 1.64  66 1.65 137 1.66 230 3.07 227 3.13
 243  0.105  0.195  0.518- 139 1.61 138 1.62 147 1.64 154 1.65 211 3.05 237 3.13
 244  0.048  0.733  0.483- 156 1.63  96 1.65  88 1.65 120 1.66 262 3.05 268 3.14
 245  0.232  0.206  0.561- 129 1.62 139 1.63  77 1.63 167 1.65 267 3.03
 246  0.561  0.258  0.381- 112 1.45 107 1.59 149 1.66 185 1.66 254 2.87 215 3.08
 247  0.476  0.626  0.621- 123 1.64 118 1.65 194 1.67  79 1.68 270 2.95 271 3.13
 248  0.281  0.770  0.598-  84 1.64 186 1.64 196 1.65 169 1.65 207 3.06
 249  0.209  0.643  0.372- 187 1.65 144 1.67  75 1.67 143 1.68 239 2.97
 250  0.740  0.711  0.536- 158 1.61 100 1.63 124 1.63 110 1.63 223 2.90 252 2.91 266 3.07
 251  0.987  0.991  0.550-  55 1.63 111 1.65  70 1.68 201 1.69 211 2.39 227 3.05
 252  0.703  0.737  0.434-  89 1.65 122 1.65 140 1.66 124 1.69 250 2.91 219 3.06 238 3.10
 253  0.788  0.059  0.577-  90 1.64 125 1.64 114 1.66 134 1.68 226 3.15
 254  0.456  0.328  0.409- 141 1.66 112 1.66  68 1.67 145 1.69 246 2.87 234 3.07
 255  0.450  0.936  0.594-  63 1.65 197 1.65 203 1.69 113 1.69 256 2.36 269 2.74
 256  0.508  0.041  0.586- 142 1.62 195 1.66 113 1.70 203 1.70 255 2.36 229 2.85 216 3.14
 257  0.244  0.370  0.421-  61 1.65  64 1.66 188 1.66 168 1.71 232 3.11 213 3.14
 258  0.659  0.330  0.450- 161 1.64 149 1.65 157 1.65 164 1.65
 259  0.460  0.318  0.529- 105 1.62 145 1.64  95 1.68 121 1.70
 260  0.337  0.590  0.399- 144 1.65 189 1.67  52 1.67  51 1.68
 261  0.803  0.476  0.580-  69 1.63 165 1.65 148 1.66 106 1.66 266 2.91 231 3.01
 262  0.069  0.899  0.481-  88 1.50  72 1.64 153 1.65  55 1.66 244 3.05 221 3.07 209 3.11
 263  0.212  0.144  0.374-  83 1.65 146 1.65 191 1.66 190 1.69 267 3.12 217 3.14
 264  0.078  0.494  0.495- 102 1.63  76 1.64 171 1.65  86 1.66 268 3.09 206 3.13
 265  0.558  0.852  0.475- 150 1.29 192 1.60  62 1.66 193 1.67 219 2.83 238 3.06
 266  0.718  0.585  0.610- 100 1.64  97 1.64 198 1.65 106 1.65 212 2.87 261 2.91 231 2.93 250 3.07

 267  0.287  0.210  0.459- 167 1.63 116 1.63  61 1.66 146 1.67 245 3.03 263 3.12
 268  0.088  0.625  0.568- 156 1.63 132 1.64 102 1.64 163 1.65 264 3.09 224 3.12 244 3.14
 269  0.353  0.019  0.578- 155 1.64  63 1.66 202 1.69  54 1.69 236 2.38 255 2.74 216 3.13
 270  0.486  0.482  0.571- 127 1.64  71 1.65  79 1.68 121 1.68 247 2.95 228 3.14
 271  0.492  0.495  0.696- 205 1.72   1 1.92 118 1.95  71 1.98 204 2.46 247 3.13

  LATTYP: Found a simple orthorhombic cell.
 ALAT       =    18.1212369514
 B/A-ratio  =     1.2919258579
 C/A-ratio  =     1.4835282260
  
  Lattice vectors:
  
 A1 = (   0.0000000000, -18.1212369514,   0.0000000000)
 A2 = ( -23.4112945954,   0.0000000000,   0.0000000000)
 A3 = (   0.0000000000,   0.0000000000, -26.8833665073)


Analysis of symmetry for initial positions (statically):
=====================================================================
 Subroutine PRICEL returns:
 Original cell was already a primitive cell.
 

 Routine SETGRP: Setting up the symmetry group for a 
 simple orthorhombic supercell.


 Subroutine GETGRP returns: Found  1 space group operations
 (whereof  1 operations were pure point group operations)
 out of a pool of  8 trial point group operations.


The static configuration has the point symmetry C_1 .


Analysis of symmetry for dynamics (positions and initial velocities):
=====================================================================
 Subroutine PRICEL returns:
 Original cell was already a primitive cell.
 

 Routine SETGRP: Setting up the symmetry group for a 
 simple orthorhombic supercell.


 Subroutine GETGRP returns: Found  1 space group operations
 (whereof  1 operations were pure point group operations)
 out of a pool of  8 trial point group operations.


The dynamic configuration has the point symmetry C_1 .


Analysis of constrained symmetry for selective dynamics:
=====================================================================
 Subroutine PRICEL returns:
 Original cell was already a primitive cell.
 

 Routine SETGRP: Setting up the symmetry group for a 
 simple orthorhombic supercell.


 Subroutine GETGRP returns: Found  1 space group operations
 (whereof  1 operations were pure point group operations)
 out of a pool of  8 trial point group operations.


The constrained configuration has the point symmetry C_1 .


 Subroutine INISYM returns: Found  1 space group operations
 (whereof  1 operations are pure point group operations),
 and found     1 'primitive' translations



 KPOINTS: KPOINTS created by Atomic Simulation Env

Automatic generation of k-mesh.
Space group operators:
 irot       det(A)        alpha          n_x          n_y          n_z        tau_x        tau_y        tau_z
    1     1.000000     0.000000     1.000000     0.000000     0.000000     0.000000     0.000000     0.000000
 
 Subroutine IBZKPT returns following result:
 ===========================================
 
 Found      5 irreducible k-points:
 
 Following reciprocal coordinates:
            Coordinates               Weight
  0.000000  0.000000  0.000000      1.000000
  0.333333  0.000000  0.000000      2.000000
  0.000000  0.333333  0.000000      2.000000
  0.333333  0.333333  0.000000      2.000000
 -0.333333  0.333333  0.000000      2.000000
 
 Following cartesian coordinates:
            Coordinates               Weight
  0.000000  0.000000  0.000000      1.000000
  0.014238  0.000000  0.000000      2.000000
  0.000000  0.018395  0.000000      2.000000
  0.014238  0.018395  0.000000      2.000000
 -0.014238  0.018395  0.000000      2.000000
 


--------------------------------------------------------------------------------------------------------




 Dimension of arrays:
   k-points           NKPTS =      5   k-points in BZ     NKDIM =      5   number of bands    NBANDS=    762
   number of dos      NEDOS =    301   number of ions     NIONS =    271
   non local maximal  LDIM  =      6   non local SUM 2l+1 LMDIM =     18
   total plane-waves  NPLWV = ******
   max r-space proj   IRMAX =   2748   max aug-charges    IRDMAX=   9808
   dimension x,y,z NGX =   128 NGY =  100 NGZ =  150
   dimension x,y,z NGXF=   256 NGYF=  200 NGZF=  300
   support grid    NGXF=   256 NGYF=  200 NGZF=  300
   ions per type =               2  48 155  65   1
   NGX,Y,Z   is equivalent  to a cutoff of   9.09,  9.17,  9.28 a.u.
   NGXF,Y,Z  is equivalent  to a cutoff of  18.18, 18.35, 18.55 a.u.

 SYSTEM =  unknown system                          
 POSCAR =   C  H  O Si  W                          

 Startparameter for this run:
   NWRITE =      2    write-flag & timer
   PREC   = normal    normal or accurate (medium, high low for compatibility)
   ISTART =      0    job   : 0-new  1-cont  2-samecut
   ICHARG =      2    charge: 1-file 2-atom 10-const
   ISPIN  =      1    spin polarized calculation?
   LNONCOLLINEAR =      F non collinear calculations
   LSORBIT =      F    spin-orbit coupling
   INIWAV =      1    electr: 0-lowe 1-rand  2-diag
   LASPH  =      T    aspherical Exc in radial PAW
   METAGGA=      F    non-selfconsistent MetaGGA calc.

 Electronic Relaxation 1
   ENCUT  =  500.0 eV  36.75 Ry    6.06 a.u.  42.68 33.04 49.01*2*pi/ulx,y,z
   ENINI  =  500.0     initial cutoff
   ENAUG  =  644.9 eV  augmentation charge cutoff
   NELM   =     60;   NELMIN=  2; NELMDL=  0     # of ELM steps 
   EDIFF  = 0.1E-03   stopping-criterion for ELM
   LREAL  =      T    real-space projection
   NLSPLINE    = F    spline interpolate recip. space projectors
   LCOMPAT=      F    compatible to vasp.4.4
   GGA_COMPAT  = T    GGA compatible to vasp.4.4-vasp.4.6
   LMAXPAW     = -100 max onsite density
   LMAXMIX     =    2 max onsite mixed and CHGCAR
   VOSKOWN=      0    Vosko Wilk Nusair interpolation
   ROPT   =   -0.00050  -0.00050  -0.00050  -0.00050
   ROPT   =   -0.00050
 Ionic relaxation
   EDIFFG = -.5E-01   stopping-criterion for IOM
   NSW    =    200    number of steps for IOM
   NBLOCK =      1;   KBLOCK =    200    inner block; outer block 
   IBRION =      3    ionic relax: 0-MD 1-quasi-New 2-CG
   NFREE  =      0    steps in history (QN), initial steepest desc. (CG)
   ISIF   =      0    stress and relaxation
   IWAVPR =     11    prediction:  0-non 1-charg 2-wave 3-comb
   ISYM   =      2    0-nonsym 1-usesym 2-fastsym
   LCORR  =      T    Harris-Foulkes like correction to forces

   POTIM  = 0.0000    time-step for ionic-motion
   TEIN   =    0.0    initial temperature
   TEBEG  =    0.0;   TEEND  =   0.0 temperature during run
   SMASS  =  -3.00    Nose mass-parameter (am)
   estimated Nose-frequenzy (Omega)   =  0.10E-29 period in steps =  0.00 mass=  -0.125E-25a.u.
   SCALEE = 1.0000    scale energy and forces
   NPACO  =    256;   APACO  = 16.0  distance and # of slots for P.C.
   PSTRESS=    0.0 pullay stress

  Mass of Ions in am
   POMASS =  12.01  1.00 16.00 28.09183.85
  Ionic Valenz
   ZVAL   =   4.00  1.00  6.00  4.00  6.00
  Atomic Wigner-Seitz radii
   RWIGS  =  -1.00 -1.00 -1.00 -1.00 -1.00
  virtual crystal weights 
   VCA    =   1.00  1.00  1.00  1.00  1.00
   NELECT =    1252.0000    total number of electrons
   NUPDOWN=      -1.0000    fix difference up-down

 DOS related values:
   EMIN   =  10.00;   EMAX   =-10.00  energy-range for DOS
   EFERMI =   0.00
   ISMEAR =     0;   SIGMA  =   0.20  broadening in eV -4-tet -1-fermi 0-gaus

 Electronic relaxation 2 (details)
   IALGO  =     68    algorithm
   LDIAG  =      T    sub-space diagonalisation (order eigenvalues)
   LSUBROT=      F    optimize rotation matrix (better conditioning)
   TURBO    =      0    0=normal 1=particle mesh
   IRESTART =      0    0=no restart 2=restart with 2 vectors
   NREBOOT  =      0    no. of reboots
   NMIN     =      0    reboot dimension
   EREF     =   0.00    reference energy to select bands
   IMIX   =      4    mixing-type and parameters
     AMIX     =   0.40;   BMIX     =  1.00
     AMIX_MAG =   1.60;   BMIX_MAG =  1.00
     AMIN     =   0.10
     WC   =   100.;   INIMIX=   1;  MIXPRE=   1;  MAXMIX= -45

 Intra band minimization:
   WEIMIN = 0.0010     energy-eigenvalue tresh-hold
   EBREAK =  0.33E-07  absolut break condition
   DEPER  =   0.30     relativ break condition  

   TIME   =   0.40     timestep for ELM

  volume/ion in A,a.u.               =      42.09       284.00
  Fermi-wavevector in a.u.,A,eV,Ry     =   0.783870  1.481299  8.360126  0.614452
  Thomas-Fermi vector in A             =   1.887886

 Write flags
   LWAVE        =      F    write WAVECAR
   LDOWNSAMPLE  =      F    k-point downsampling of WAVECAR
   LCHARG       =      F    write CHGCAR
   LVTOT        =      F    write LOCPOT, total local potential
   LVHAR        =      F    write LOCPOT, Hartree potential only
   LELF         =      F    write electronic localiz. function (ELF)
   LORBIT       =      0    0 simple, 1 ext, 2 COOP (PROOUT), +10 PAW based schemes


 Dipole corrections
   LMONO  =      F    monopole corrections only (constant potential shift)
   LDIPOL =      T    correct potential (dipole corrections)
   IDIPOL =      3    1-x, 2-y, 3-z, 4-all directions 
   EPSILON=  1.0000000 bulk dielectric constant

 Exchange correlation treatment:
   GGA     =    RP    GGA type
   LEXCH   =     9    internal setting for exchange type
   VOSKOWN=      0    Vosko Wilk Nusair interpolation
   LHFCALC =     F    Hartree Fock is set to
   LHFONE  =     F    Hartree Fock one center treatment
   AEXX    =    0.0000 exact exchange contribution

 Linear response parameters
   LEPSILON=     F    determine dielectric tensor
   LRPA    =     F    only Hartree local field effects (RPA)
   LNABLA  =     F    use nabla operator in PAW spheres
   LVEL    =     F    velocity operator in full k-point grid
   LINTERFAST=   F  fast interpolation
   KINTER  =     0    interpolate to denser k-point grid
   CSHIFT  =0.1000    complex shift for real part using Kramers Kronig
   OMEGAMAX=  -1.0    maximum frequency
   DEG_THRESHOLD= 0.2000000E-02 threshold for treating states as degnerate
   RTIME   =   -0.100 relaxation time in fs
  (WPLASMAI=    0.000 imaginary part of plasma frequency in eV, 0.658/RTIME)
   DFIELD  = 0.0000000 0.0000000 0.0000000 field for delta impulse in time

 Orbital magnetization related:
   ORBITALMAG=     F  switch on orbital magnetization
   LCHIMAG   =     F  perturbation theory with respect to B field
   DQ        =  0.001000  dq finite difference perturbation B field
   LLRAUG    =     F  two centre corrections for induced B field



--------------------------------------------------------------------------------------------------------


 quickmin algorithm: (dynamic with friction)
   using selective dynamics as specified on POSCAR
 charge density and potential will be updated during run
 non-spin polarized calculation
 RMM-DIIS sequential band-by-band and
  variant of blocked Davidson during initial phase
 perform sub-space diagonalisation
    before iterative eigenvector-optimisation
 modified Broyden-mixing scheme, WC =      100.0
 initial mixing is a Kerker type mixing with AMIX =  0.4000 and BMIX =      1.0000
 Hartree-type preconditioning will be used
 using additional bands          136
 real space projection scheme for non local part
 use partial core corrections
 calculate Harris-corrections to forces   (improved forces if not selfconsistent)
 use gradient corrections 
 use of overlap-Matrix (Vanderbilt PP)
 Gauss-broadening in eV      SIGMA  =   0.20


--------------------------------------------------------------------------------------------------------


  energy-cutoff  :      500.00
  volume of cell :    11405.04
      direct lattice vectors                 reciprocal lattice vectors
    23.411294595  0.000000000  0.000000000     0.042714426  0.000000000  0.000000000
     0.000000000 18.121236951  0.000000000     0.000000000  0.055183871  0.000000000
     0.000000000  0.000000000 26.883366507     0.000000000  0.000000000  0.037197722

  length of vectors
    23.411294595 18.121236951 26.883366507     0.042714426  0.055183871  0.037197722



 k-points in units of 2pi/SCALE and weight: KPOINTS created by Atomic Simulation Env
   0.00000000  0.00000000  0.00000000       0.111
   0.01423814  0.00000000  0.00000000       0.222
   0.00000000  0.01839462  0.00000000       0.222
   0.01423814  0.01839462  0.00000000       0.222
  -0.01423814  0.01839462  0.00000000       0.222

 k-points in reciprocal lattice and weights: KPOINTS created by Atomic Simulation Env
   0.00000000  0.00000000  0.00000000       0.111
   0.33333333  0.00000000  0.00000000       0.222
   0.00000000  0.33333333  0.00000000       0.222
   0.33333333  0.33333333  0.00000000       0.222
  -0.33333333  0.33333333  0.00000000       0.222

 position of ions in fractional coordinates (direct lattice) 
   0.55939616  0.52451357  0.73182976
   0.55312539  0.36300384  0.73410320
   0.76322885  0.10037996  0.65237274
   0.92642768  0.27866896  0.35633493
   0.79333970  0.20727890  0.37345652
   0.97453911  0.94360860  0.32530279
   0.62573266  0.96347285  0.37523120
   0.82053840  0.99500666  0.36899263
   0.74999307  0.14117876  0.45803819
   0.91553589  0.24947927  0.50862907
   0.58349286  0.30426355  0.30592717
   0.89119167  0.33465213  0.61611482
   0.57649385  0.34181234  0.62178729
   0.59342445  0.87102663  0.57801150
   0.03390454  0.33816033  0.65169483
   0.93527051  0.41951423  0.45410146
   0.74613838  0.53031199  0.42248819
   0.79665349  0.38135583  0.63394936
   0.59110202  0.56868283  0.37803474
   0.71843379  0.64593279  0.38346059
   0.84115291  0.54242660  0.41959617
   0.00476455  0.60379815  0.35777830
   0.82835870  0.71235667  0.46794226
   0.88060902  0.60041310  0.71962327
   0.51999031  0.98556476  0.42170307
   0.22309457  0.98015484  0.39320502
   0.21637369  0.23785146  0.31923033
   0.15750105  0.32980623  0.27898292
   0.34154688  0.15558571  0.33077276
   0.22271586  0.04575893  0.32273843
   0.51132440  0.82510484  0.54674266
   0.36814791  0.23174931  0.64645608
   0.24390184  0.09310532  0.59848360
   0.31538097  0.48713646  0.44243467
   0.40895618  0.43873486  0.40569060
   0.39849950  0.79311361  0.38878680
   0.24420236  0.65543008  0.29432688
   0.31174138  0.41847571  0.36925764
   0.40547429  0.58427965  0.33881989
   0.13935762  0.48797365  0.35192946
   0.59326935  0.69798713  0.35239799
   0.46900683  0.86142747  0.44382838
   0.12193074  0.32264479  0.61142558
   0.07384635  0.66422087  0.64595142
   0.23886694  0.38858568  0.68292065
   0.24563910  0.81458837  0.66962381
   0.59616668  0.54424168  0.71006203
   0.56447851  0.52705817  0.77224868
   0.53825258  0.38384764  0.77051718
   0.59575717  0.33638801  0.73219409
   0.36894173  0.64835510  0.43900002
   0.34681565  0.50403387  0.42038813
   0.86070966  0.56750554  0.69713164
   0.34880848  0.95755850  0.53030407
   0.03345698  0.93255133  0.52853641
   0.63635548  0.07886855  0.48937667
   0.06864615  0.05226542  0.39511073
   0.45189954  0.12956232  0.42059728
   0.80588415  0.21365018  0.48316661
   0.97311924  0.18139130  0.59900711
   0.27476529  0.29917287  0.44851223
   0.55635417  0.77509129  0.44175101
   0.39203194  0.97313384  0.61919277
   0.17751724  0.34996845  0.40527312
   0.86668379  0.68404377  0.63714015
   0.86569601  0.96717693  0.46703846
   0.30104714  0.76093683  0.45792526
   0.42161095  0.26125222  0.37959630
   0.81117194  0.46547571  0.52014551
   0.98350091  0.07273444  0.52127630
   0.51245694  0.46562224  0.62707285
   0.03453641  0.91994776  0.42940526
   0.96303654  0.30319531  0.35125762
   0.06962669  0.33610577  0.37637178
   0.20829566  0.72864429  0.39536010
   0.03890126  0.41910192  0.49910875
   0.24005567  0.28583748  0.58810791
   0.39728164  0.19382132  0.64431568
   0.45396936  0.56407430  0.57928657
   0.90980472  0.74919941  0.55746132
   0.86912727  0.10804334  0.44227833
   0.57257679  0.66733185  0.37613173
   0.14242656  0.15912550  0.37597224
   0.35014748  0.76624438  0.60653671
   0.91099605  0.84504757  0.48317962
   0.06133801  0.53687171  0.44225348
   0.70833903  0.55516655  0.41995768
   0.07548726  0.81680680  0.48299416
   0.70046477  0.82755572  0.43263529
   0.73037149  0.04924575  0.54297773
   0.91852677  0.30159217  0.63205293
   0.73501410  0.85308449  0.61292562
   0.62512195  0.52739400  0.48637871
   0.55657330  0.62970304  0.46724942
   0.42484072  0.24699496  0.55501882
   0.97829009  0.72824363  0.47679564
   0.65398347  0.59444949  0.63350162
   0.39700835  0.74638904  0.51533646
   0.60269007  0.51766545  0.38567099
   0.71976524  0.63120066  0.55713018
   0.14677344  0.36380521  0.61979660
   0.06602150  0.54850285  0.54192286
   0.81886402  0.88458961  0.53659945
   0.82821553  0.35538514  0.45190334
   0.52692183  0.29842756  0.53351438
   0.73677307  0.49922420  0.59556475
   0.55743394  0.17243111  0.39490854
   0.80596408  0.25641257  0.38329286
   0.23744622  0.95325075  0.50791956
   0.69297048  0.77648380  0.54138193
   0.92384857  0.94975701  0.55294603
   0.52573722  0.31778112  0.39855594
   0.46860669  0.99032138  0.54579534
   0.83769720  0.09544057  0.54008988
   0.53790325  0.11641749  0.48623709
   0.35019344  0.18660873  0.43963639
   0.01176032  0.96241390  0.33524376
   0.45651694  0.58677856  0.67412669
   0.65496522  0.92539750  0.37922825
   0.07629334  0.68602626  0.43588102
   0.45220765  0.40494696  0.55274913
   0.71921944  0.70042085  0.37958300
   0.44991284  0.70408614  0.60118665
   0.75255106  0.70932458  0.47629548
   0.77893225  0.11991435  0.62171970
   0.99327462  0.30801347  0.44840298
   0.53309151  0.50808270  0.52994222
   0.81677759  0.49906173  0.42344221
   0.23615392  0.14510898  0.60543790
   0.20353331  0.83070132  0.47053363
   0.23995190  0.55865062  0.52286702
   0.06121410  0.62545818  0.62370151
   0.04607407  0.60234669  0.35417863
   0.80091048  0.97857037  0.60572708
   0.53799091  0.02769749  0.40450275
   0.60720050  0.31640938  0.60441229
   0.86154611  0.00408085  0.36920633
   0.09491131  0.14902284  0.46708233
   0.17129270  0.20431082  0.53132266
   0.64098865  0.70443872  0.45481558
   0.43678778  0.40976848  0.38641325
   0.57414846  0.05920275  0.57115126
   0.15143775  0.59340802  0.38895836
   0.26773979  0.60233753  0.39230630
   0.44025846  0.32219818  0.47032443
   0.23800967  0.15851113  0.42990119
   0.07273552  0.15013022  0.56255247
   0.84500994  0.54388460  0.59998778
   0.62117943  0.27993988  0.41090545
   0.60266699  0.89152667  0.46722346
   0.03138539  0.19528983  0.38899188
   0.60768061  0.19610307  0.54693334
   0.13279973  0.93835464  0.47948708
   0.08025785  0.28036485  0.51158823
   0.37231997  0.10438108  0.56722807
   0.06667467  0.69699605  0.53570354
   0.66648838  0.41538488  0.43001156
   0.79936564  0.72964723  0.56412708
   0.70383856  0.95720843  0.47018456
   0.59839323  0.63365625  0.55288070
   0.72284030  0.29368465  0.45166811
   0.97759084  0.31412583  0.54730593
   0.15825664  0.62959511  0.57045902
   0.63333384  0.32678308  0.50780070
   0.81954398  0.39630446  0.60560486
   0.95857820  0.02724304  0.41695300
   0.28198221  0.19512656  0.51866345
   0.24925755  0.44303289  0.46105570
   0.27159562  0.84980672  0.56882432
   0.20366815  0.68557317  0.48688872
   0.14712345  0.47606988  0.49254493
   0.22467119  0.42240972  0.55674970
   0.91141698  0.45274460  0.47371881
   0.86978818  0.70456011  0.46415352
   0.73812021  0.09283462  0.44522965
   0.22218344  0.92978119  0.40794682
   0.25143664  0.40191015  0.64978238
   0.63048692  0.88345170  0.59337109
   0.41022327  0.78906239  0.42343739
   0.91777135  0.19603829  0.50824515
   0.13254706  0.44353611  0.33227266
   0.15514768  0.30352326  0.31056042
   0.37300515  0.13090704  0.34795342
   0.03432325  0.29179929  0.63363291
   0.57268926  0.25686819  0.32009968
   0.24464396  0.76994285  0.64975217
   0.20737430  0.64840505  0.31036906
   0.27537441  0.39219130  0.36737583
   0.36535081  0.59758663  0.34222079
   0.22638085  0.05618082  0.35811888
   0.24120334  0.19607823  0.32934297
   0.50127293  0.89230162  0.45484168
   0.55025977  0.82774275  0.53435194
   0.54461799  0.64695667  0.63349058
   0.47809634  0.12225314  0.59608921
   0.26242106  0.69424232  0.56857145
   0.44277220  0.84705085  0.58152032
   0.76552646  0.61677118  0.64945414
   0.84483423  0.83167460  0.62298164
   0.64003003  0.73957849  0.62068562
   0.00812144  0.03334562  0.60300862
   0.28461555  0.00199203  0.59334731
   0.50333333  0.97213327  0.62838290
   0.52200833  0.36461994  0.69656899
   0.44530700  0.46579598  0.74086297
   0.08322528  0.60642030  0.40641308
   0.40907454  0.76528540  0.57481905
   0.84176382  0.44145312  0.46783897
   0.01708949  0.99048204  0.39361135
   0.01470021  0.28419027  0.39108141
   0.00919412  0.11498406  0.57256480
   0.60920202  0.65772007  0.61059573
   0.21400835  0.47581234  0.50974791
   0.91506213  0.75556094  0.49625454
   0.52057854  0.11045563  0.42598659
   0.41809724  0.16911279  0.58846004
   0.08345253  0.13917208  0.40698087
   0.70189793  0.04484625  0.48732303
   0.66505935  0.89803746  0.43747644
   0.65009874  0.50402706  0.43015089
   0.19846065  0.91248223  0.46399069
   0.21437128  0.36646156  0.60361044
   0.67358104  0.81368767  0.59452299
   0.21667487  0.64153401  0.53849418
   0.36878912  0.73512773  0.45920930
   0.79744594  0.88837359  0.59560271
   0.87979015  0.91224322  0.51196885
   0.57627355  0.57444280  0.51175086
   0.58992782  0.11591039  0.52509823
   0.85812234  0.15211323  0.49517595
   0.83545647  0.60375666  0.64586963
   0.13373852  0.36031890  0.35687228
   0.79065529  0.27993925  0.44187265
   0.39917610  0.17749484  0.39600320
   0.85602441  0.75010606  0.59646444
   0.28289454  0.93430185  0.54956354
   0.02307473  0.33044751  0.50224551
   0.57455938  0.69549008  0.43556436
   0.23024095  0.75260050  0.45196954
   0.59359046  0.28483395  0.54845039
   0.97497910  0.27220577  0.60269049
   0.88890636  0.02540900  0.42420019
   0.10464488  0.19543995  0.51778075
   0.04814566  0.73303709  0.48263019
   0.23199976  0.20584889  0.56112531
   0.56140781  0.25778527  0.38122611
   0.47646771  0.62597646  0.62141690
   0.28101840  0.77041721  0.59772467
   0.20850083  0.64339984  0.37179454
   0.74038794  0.71079601  0.53582727
   0.98655500  0.99056655  0.55036140
   0.70310456  0.73681815  0.43426040
   0.78802298  0.05938858  0.57691182
   0.45631390  0.32845159  0.40928789
   0.44973755  0.93597494  0.59413383
   0.50849366  0.04121554  0.58579752
   0.24424715  0.37040632  0.42094710
   0.65852534  0.33000211  0.45034791
   0.45976972  0.31847869  0.52904565
   0.33729937  0.58994254  0.39908301
   0.80312068  0.47645529  0.57979186
   0.06920979  0.89885916  0.48050551
   0.21190758  0.14445432  0.37359659
   0.07823286  0.49398500  0.49468762
   0.55757019  0.85234010  0.47473025
   0.71821506  0.58473459  0.60959959
   0.28664212  0.21010174  0.45911077
   0.08808868  0.62543743  0.56756082
   0.35347575  0.01887063  0.57769483
   0.48589155  0.48199311  0.57125000
   0.49239418  0.49486764  0.69567511

 position of ions in cartesian coordinates  (Angst):
  13.09618840  9.50483462 19.67404768
  12.94938135  6.57807858 19.73516540
  17.86817546  1.81900897 17.53797541
  21.68887124  5.04982631  9.57948250
  18.57310935  3.75615001 10.03976840
  22.81522226 17.09935504  8.74523415
  14.64921175 17.45931981 10.08747787
  19.20986618 18.03075152  9.91976410
  17.55830880  2.55833369 12.31360861
  21.43388047  4.52087291 13.67366177
  13.66032332  5.51363182  8.22435231
  20.86395064  6.06431047 16.56324059
  13.49646726  6.19406249 16.71573560
  13.89283451 15.78407997 15.53889495
   0.79374913  6.12788352 17.51975106
  21.89589338  7.60211669 12.20777585
  17.46806539  9.60990927 11.35790489
  18.65068965  6.91063927 17.04269298
  13.83846347 10.30523625 10.16284657
  16.81946503 11.70510107 10.30871170
  19.69247867  9.82944088 11.28015755
   0.11154425 10.94156933  9.61828518
  19.39294954 12.90878407 12.57986315
  20.61619709 10.88022807 19.34589605
  12.17364643 17.85965258 11.33679820
   5.22293275 17.76161802 10.57067472
   5.06558822  4.31016263  8.58198589
   3.68730349  5.97649684  7.50000000
   7.99605455  2.81940544  8.89228530
   5.21406665  0.82920834  8.67629559
  11.97076621 14.95192030 14.69828328
   8.61881922  4.19958416 17.37891564
   5.71005790  1.68718355 16.08925392
   7.38347683  8.82751530 11.89413327
   9.57419369  7.95041833 10.90632902
   9.32938927 14.37219961 10.45189795
   5.71709332 11.87720376  7.91249741
   7.29826932  7.58329756  9.92688859
   9.49267817 10.58787005  9.10861924
   3.26254231  8.84268608  9.46104865
  13.88920341 12.64839014  9.47364424
  10.98005707 15.61013129 11.93160111
   2.85455655  5.84672276 16.43717788
   1.72883868 12.03650378 17.36534872
   5.59218423  7.04165316 18.35920625
   5.75072943 14.76134888 18.00174237
  13.95703379  9.86233247 19.08885793
  13.21517262  9.55094603 20.76064433
  12.60118967  6.95579409 20.71409576
  13.94744664  6.09576684 19.68384203
   8.63740362 11.74899635 11.80179838
   8.11940335  9.13371715 11.30144811
  20.15032738 10.28390243 18.74124528
   8.16605803 17.35214456 14.25635856
   0.78327131 16.89898364 14.20883795
  14.89790566  1.42919560 13.15609244
   1.60709516  0.94711409 10.62190669
  10.57955332  2.34782959 11.30707087
  18.86679123  3.87160553 12.98914499
  22.78198119  3.28703477 16.10332756
   6.43261122  5.42138249 12.05751853
  13.02497128 14.04561295 11.87575437
   9.17797530 17.63438884 16.64598614
   4.15590840  6.34186120 10.89510594
  20.29018957 12.39571931 17.12847206
  20.26706433 17.52644236 12.55556607
   7.04790320 13.78911669 12.31057251
   9.87045805  4.73421333 10.20482654
  18.99058516  8.43499570 13.98326240
  23.02502958  1.31803804 14.01366183
  11.99728048  8.43765086 16.85782935
   0.80854198 16.67059137 11.54385891
  22.54593219  5.49427402  9.44298747
   1.63005096  6.09065222 10.11814055
   4.87647100 13.20393591 10.62861051
   0.91072893  7.59464512 13.41772355
   5.62001393  5.17972877 15.81032038
   9.30087749  3.51228209 17.32137444
  10.62801045 10.22172405 15.57317321
  21.29970634 13.57642003 14.98643705
  20.34739459  1.95787901 11.88993046
  13.40476402 12.09287863 10.11168720
   3.33439013  2.88355087 10.10739962
   8.19740570 13.88529591 16.30574861
  21.32759690 15.31330728 12.98949491
   1.43600223  9.72877939 11.88926245
  16.58313365 10.06030463 11.28987623
   1.76725442 14.80154966 12.98450890
  16.39878711 14.99633320 11.63069310
  17.09894213  0.89239391 14.59706937
  21.50390076  5.46522315 16.99171054
  17.20763156 15.45894614 16.47750419
  14.63491423  9.55703168 13.07549710
  13.03010146 11.41099800 12.56123752
   9.94607132  4.47585422 14.92077429
  22.90303759 13.19667544 12.81787194
  15.31059966 10.77216014 17.03065622
   9.29447954 13.52549261 13.85397900
  14.10975474  9.38073831 10.36813464
  16.85063599 11.43813677 14.97753495
   3.43615631  6.59260035 16.66221910
   1.54564884  9.93955011 14.56871097
  19.17066679 16.02985798 14.42559964
  19.38959778  6.44001838 12.14868300
  12.33592218  5.40787661 14.34266274
  17.24881140  9.04655994 16.01078540
  13.05025010  3.12466491 10.61647095
  18.86866258  4.64651295 10.30420244
   5.55892333 17.27408272 13.65458756
  16.22333604 14.07084697 14.55416886
  21.62849113 17.21077182 14.86505083
  12.30818899  5.75858697 10.71452528
  10.97068922 17.94584847 14.67281622
  19.61157583  1.72950118 14.51943407
  12.59301152  2.10962891 13.07168996
   8.19848185  3.38158106 11.81890631
   0.27532438 17.44013033  9.01248080
  10.68765252 10.63315335 18.12279482
  15.33358375 16.76934745 10.19493214
   1.78612593 12.43164437 11.71794928
  10.58676656  7.33813982 14.85975740
  16.83785811 12.69249221 10.20446890
  10.53304201 12.75891180 16.16192098
  17.61819454 12.85383871 12.80442605
  18.23581238  2.17299626 16.71391849
  23.25384464  5.58158514 12.05458163
  12.48036228  9.20708704 14.24663104
  19.12182067  9.04361594 11.38355200
   5.52866904  2.62955416 16.27620891
   4.76497818 15.05333538 12.64952801
   5.61758472 10.12344028 14.05642566
   1.43310143 11.33407587 16.76719619
   1.07865368 10.91526714  9.52151395
  18.75035126 17.73290547 16.28398311
  12.59506368  0.50191281 10.87439573
  14.21534981  5.73372944 16.24863719
  20.16990973  0.07395004  9.92550906
   2.22199659  2.70047811 12.55674536
   4.01018382  3.70236484 14.28374167
  15.00637423 12.76530097 12.22697399
  10.22576747  7.42551174 10.38808912
  13.44155877  1.07282699 15.35446864
   3.54535369 10.75328740 10.45651017
   6.26813510 10.91510113 10.54651395
  10.30702051  5.83862961 12.64390410
   5.57211440  2.87241773 11.55719116
   1.70283278  2.72054524 15.12330413
  19.78277662  9.85586170 16.12969130
  14.54261460  5.07285684 11.04652184
  14.10921452 16.15556596 12.56053950
   0.73477264  3.53889327 10.45741115
  14.22658976  3.55363012 14.70340945
   3.10901352 17.00414686 12.89022683
   1.87894012  5.08055787 13.75321391
   8.71649260  1.89151425 15.24900014
   1.56094045 12.63043062 14.40151464
  15.60335582  7.52728779 11.56015827
  18.71418448 13.22211026 15.16563497
  16.47777184 17.34580083 12.64014391
  14.00916013 11.48263512 14.86329441
  16.92262721  5.32192921 12.14235921
  22.88666718  5.69234854 14.71342583
   3.70499284 11.40904218 15.33585903
  14.82716522  5.92171361 13.65139239
  19.18658557  7.18152709 16.28069730
  22.44155659  0.49367766 11.20910044
   6.60156867  3.53593467 13.94341954
   5.83544193  8.02830396 12.39472924
   6.35840517 15.39954900 15.29191279
   4.76813504 12.42343385 13.08920785
   3.44435051  8.62697504 13.24126574
   5.25984344  7.65458659 14.96730622
  21.33745138  8.20429214 12.73515651
  20.36286723 12.76750071 12.47800922
  17.28034963  1.68227812 11.96927179
   5.20160189 16.84878525 10.96698378
   5.88645728  7.28310907 17.46833777
  14.76051493 16.00923764 15.95181254
   9.60385771 14.29878658 11.38342242
  21.48621551  3.55245637 13.66334053
   3.10309823  8.03742302  8.93260776
   3.63220806  5.50021683  8.34890949
   8.73253334  2.37219755  9.35415932
   0.80355164  5.28776411 17.03418562
  13.40739700  4.65476936  8.60535697
   5.72743173 13.95231682 17.46752573
   4.85490080 11.74990155  8.34376522
   6.44687148  7.10699146  9.87629901
   8.55333550 10.82900896  9.20004704
   5.29986878  1.01806603  9.62744117
   5.64688233  3.55318002  8.85384768
  11.73544815 16.16960912 12.22767567
  12.88229368 14.99972253 14.36517900
  12.75021217 11.72365519 17.03035931
  11.19285434  2.21537808 16.02488479
   6.14361671 12.58052965 15.28511466
  10.36587044 15.34960924 15.63322385
  17.92196538 11.17665674 17.45951367
  19.77866298 15.07097253 16.74784384
  14.98393155 13.40207700 16.68611890
   0.19013335  0.60426387 16.21090179
   6.66321854  0.03609802 15.95117332
  11.78368487 17.61625735 16.89304789
  12.22089089  6.60736434 18.72611952
  10.42521341  8.44079924 19.91689078
   1.94841153 10.98908596 10.92575188
   9.57696446 13.86791814 15.45307122
  19.70678075  7.99967650 12.57708649
   0.40008717 17.94875972 10.58159830
   0.34415087  5.14987929 10.51358498
   0.21524634  2.08365334 15.39246950
  14.26220794 11.91870121 16.41486874
   5.01021250  8.62230811 13.70373981
  21.42278905 13.69169878 13.34099278
  12.18741762  2.00159257 11.45195358
   9.78819766  3.06453301 15.81978701
   1.95373172  2.52197018 10.94101594
  16.43233932  0.81266960 13.10088356
  15.56990048 16.27354967 11.76083937
  15.21965321  9.13359373 11.56390395
   4.64622069 16.53530673 12.47363180
   5.01870929  6.64073677 16.22708078
  15.76940421 14.74502699 15.98277931
   5.07263910 11.62538972 14.47653648
   8.63383069 13.32142384 12.34509184
  18.66924179 16.09842839 16.01180600
  20.59702628 16.53097556 13.76344626
  13.49130981 10.40961408 13.75758587
  13.81097394  2.10043957 14.11640810
  20.08975493  2.75647993 13.31199648
  19.55911746 10.94081742 17.36314990
   3.13099191  6.52942423  9.59392828
  18.51026388  5.07284540 11.87902451
   9.34522920  3.21642612 10.64589911
  20.04063969 13.59284971 16.03497215
   6.62292733 16.93070513 14.77411819
   0.54020936  5.98811771 13.50205012
  13.45117902 12.60314055 11.70943634
   5.39023881 13.63805193 12.15046292
  13.89672116  5.16154357 14.74419278
  22.82552293  4.93270526 16.20234928
  20.81044864  0.46044249 11.40392910
   2.44987219  3.54161368 13.91968957
   1.12715225 13.28353886 12.97472440
   5.43141484  3.73023649 15.08493748
  13.14328356  4.67138795 10.24864117
  11.15472585 11.34346770 16.70577840
   6.57900449 13.96091276 16.06885141
   4.88127424 11.65920104  9.99508876
  17.33344015 12.88050297 14.40484093
  23.09652973 17.95029121 14.79556716
  16.46058793 13.35205634 11.67438144
  18.44863818  1.07619456 15.50933201
  10.68289909  5.95194918 11.00303640
  10.52893836 16.96102372 15.97231738
  11.90449491  0.74687663 15.74820951
   5.71814202  6.71222076 11.31647527
  15.41693082  5.98004644 12.10686792
  10.76380434  5.77122775 14.22252808
   7.89661487 10.69048859 10.72869482
  18.80209493  8.63395916 15.58675720
   1.62029077 16.28843975 12.91760565
   4.96103076  2.61769098 10.04353415
   1.83153245  8.95161915 13.29886860
  13.05343995 15.44545689 12.76234739
  16.81434428 10.59611400 16.38808931
   6.71066321  3.80730339 12.34244318
   2.06226999 11.33369992 15.25794561
   8.27532491  0.34195907 15.53038176
  11.37535033  8.73431143 15.35712309
  11.52758524  8.96761371 18.70208888



--------------------------------------------------------------------------------------------------------


 k-point  1 :   0.0000 0.0000 0.0000  plane waves:  289505
 k-point  2 :   0.3333 0.0000 0.0000  plane waves:  289422
 k-point  3 :   0.0000 0.3333 0.0000  plane waves:  289550
 k-point  4 :   0.3333 0.3333 0.0000  plane waves:  289551
 k-point  5 :  -0.3333 0.3333 0.0000  plane waves:  289551

 maximum and minimum number of plane-waves per node :     72451    72309

 maximum number of plane-waves:    289551
 maximum index in each direction: 
   IXMAX=   43   IYMAX=   33   IZMAX=   49
   IXMIN=  -43   IYMIN=  -33   IZMIN=  -49


 real space projection operators:
  total allocation   :      13573.19 KBytes
  max/ min on nodes  :       3397.17       3388.16


 parallel 3D FFT for wavefunctions:
    minimum data exchange during FFTs selected (reduces bandwidth)
 parallel 3D FFT for charge:
    minimum data exchange during FFTs selected (reduces bandwidth)


 total amount of memory used by VASP MPI-rank0  2525066. kBytes
=======================================================================

   base      :      30000. kBytes
   nonlr-proj:      16633. kBytes
   fftplans  :      79581. kBytes
   grid      :     173670. kBytes
   one-center:       1057. kBytes
   wavefun   :    2224125. kBytes

     INWAV:  cpu time    0.0001: real time    0.0001
 Broyden mixing: mesh for mixing (old mesh)
   NGX = 85   NGY = 67   NGZ = 99
  (NGX  =256   NGY  =200   NGZ  =300)
  gives a total of 563805 points

 initial charge density was supplied:
 charge density of overlapping atoms calculated
 number of electron    1252.0000000 magnetization 
 keeping initial charge density in first step


--------------------------------------------------------------------------------------------------------


 Maximum index for non-local projection operator          655
 Maximum index for augmentation-charges         1172 (set IRDMAX)


--------------------------------------------------------------------------------------------------------


 First call to EWALD:  gamma=   0.079
 Maximum number of real-space cells 3x 3x 2
 Maximum number of reciprocal cells 3x 2x 3

    FEWALD:  cpu time    0.0786: real time    0.0789


--------------------------------------- Iteration      1(   1)  ---------------------------------------


    POTLOK:  cpu time    1.0630: real time    1.0686
    SETDIJ:  cpu time    1.9440: real time    1.9521
     EDDAV:  cpu time  340.7488: real time  342.1013
       DOS:  cpu time    0.0052: real time    0.0052
    --------------------------------------------
      LOOP:  cpu time  343.7611: real time  345.1273

 eigenvalue-minimisations  :  8492
 total energy-change (2. order) : 0.1288158E+05  (-0.4904114E+05)
 number of electron    1252.0000000 magnetization 
 augmentation part     1252.0000000 magnetization 

 DIPCOR: dipole corrections for dipol
 direction  3 min pos    65,
 dipolmoment           0.000000      0.000000      0.342477 electrons x Angstroem
 Tr[quadrupol]    -94384.656511

 energy correction for charged system         0.000000 eV
 dipol+quadrupol energy correction           -0.000954 eV
 added-field ion interaction         39.545909 eV  (added to PSCEN)


 Free energy of the ion-electron system (eV)
  ---------------------------------------------------
  alpha Z        PSCENC =       524.33379895
  Ewald energy   TEWEN  =    310753.40224547
  -Hartree energ DENC   =   -373078.58234010
  -exchange      EXHF   =         0.00000000
  -V(xc)+E(xc)   XCENC  =      3769.67632931
  PAW double counting   =     60076.77464710   -59094.97975615
  entropy T*S    EENTRO =        -1.64493370
  eigenvalues    EBANDS =     -4862.26685131
  atomic energy  EATOM  =     74794.86799615
  Solvation  Ediel_sol  =         0.00000000
  ---------------------------------------------------
  free energy    TOTEN  =     12881.58113571 eV

  energy without entropy =    12883.22606941  energy(sigma->0) =    12882.40360256


--------------------------------------------------------------------------------------------------------




--------------------------------------- Iteration      1(   2)  ---------------------------------------


     EDDAV:  cpu time  411.7041: real time  413.3931
       DOS:  cpu time    0.0030: real time    0.0030
    --------------------------------------------
      LOOP:  cpu time  411.7071: real time  413.3961

 eigenvalue-minimisations  : 10672
 total energy-change (2. order) :-0.1220033E+05  (-0.1180577E+05)
 number of electron    1252.0000000 magnetization 
 augmentation part     1252.0000000 magnetization 

 DIPCOR: dipole corrections for dipol
 direction  3 min pos    65,
 dipolmoment           0.000000      0.000000      0.342477 electrons x Angstroem
 Tr[quadrupol]    -94384.656511

 energy correction for charged system         0.000000 eV
 dipol+quadrupol energy correction           -0.000954 eV
 added-field ion interaction         39.545909 eV  (added to PSCEN)


 Free energy of the ion-electron system (eV)
  ---------------------------------------------------
  alpha Z        PSCENC =       524.33379895
  Ewald energy   TEWEN  =    310753.40224547
  -Hartree energ DENC   =   -373078.58234010
  -exchange      EXHF   =         0.00000000
  -V(xc)+E(xc)   XCENC  =      3769.67632931
  PAW double counting   =     60076.77464710   -59094.97975615
  entropy T*S    EENTRO =        -0.00000000
  eigenvalues    EBANDS =    -17064.23955369
  atomic energy  EATOM  =     74794.86799615
  Solvation  Ediel_sol  =         0.00000000
  ---------------------------------------------------
  free energy    TOTEN  =       681.25336703 eV

  energy without entropy =      681.25336703  energy(sigma->0) =      681.25336703


--------------------------------------------------------------------------------------------------------




--------------------------------------- Iteration      1(   3)  ---------------------------------------


     EDDAV:  cpu time  351.8149: real time  353.1938
       DOS:  cpu time    0.0031: real time    0.0031
    --------------------------------------------
      LOOP:  cpu time  351.8180: real time  353.1969

 eigenvalue-minimisations  :  8848
 total energy-change (2. order) :-0.2667645E+04  (-0.2658405E+04)
 number of electron    1252.0000000 magnetization 
 augmentation part     1252.0000000 magnetization 

 DIPCOR: dipole corrections for dipol
 direction  3 min pos    65,
 dipolmoment           0.000000      0.000000      0.342477 electrons x Angstroem
 Tr[quadrupol]    -94384.656511

 energy correction for charged system         0.000000 eV
 dipol+quadrupol energy correction           -0.000954 eV
 added-field ion interaction         39.545909 eV  (added to PSCEN)


 Free energy of the ion-electron system (eV)
  ---------------------------------------------------
  alpha Z        PSCENC =       524.33379895
  Ewald energy   TEWEN  =    310753.40224547
  -Hartree energ DENC   =   -373078.58234010
  -exchange      EXHF   =         0.00000000
  -V(xc)+E(xc)   XCENC  =      3769.67632931
  PAW double counting   =     60076.77464710   -59094.97975615
  entropy T*S    EENTRO =        -0.00000000
  eigenvalues    EBANDS =    -19731.88409580
  atomic energy  EATOM  =     74794.86799615
[...]
     19.77866     15.07097     16.74784        -0.000339      0.001183      0.004439
     14.98393     13.40208     16.68612         0.002737      0.005499      0.002666
      0.19013      0.60426     16.21090         0.001316     -0.003793     -0.005952
      6.66322      0.03610     15.95117         0.007495      0.005212      0.005879
     11.78368     17.61626     16.89305         0.001269     -0.008218     -0.006688
     12.22089      6.60736     18.72612         0.012511     -0.003744     -0.002820
     10.42521      8.44080     19.91689         0.016251     -0.007055     -0.006288
      1.94841     10.98909     10.92575        -0.058450     -0.144285      0.025383
      9.57696     13.86792     15.45307        -0.006379      0.002456     -0.000249
     19.70678      7.99968     12.57709         0.111524     -0.144570     -0.291988
      0.40009     17.94876     10.58160         0.099264     -0.146813      0.296459
      0.34415      5.14988     10.51358         0.046921      0.038446      0.043610
      0.21525      2.08365     15.39247         0.001557      0.000257     -0.001754
     14.26221     11.91870     16.41487         0.000394      0.000801     -0.001927
      5.01021      8.62231     13.70374        -0.000136      0.004227     -0.002680
     21.42279     13.69170     13.34099         0.208648      0.231284     -0.664097
     12.18742      2.00159     11.45195         0.162965     -0.074286      0.461834
      9.78820      3.06453     15.81979        -0.004996      0.003601     -0.002049
      1.95373      2.52197     10.94102         0.075288     -0.122515      0.037878
     16.43234      0.81267     13.10088         0.095797     -0.077166     -0.308977
     15.56990     16.27355     11.76084        -0.487573      4.528604     -0.226451
     15.21965      9.13359     11.56390         0.046518      0.064426      0.278639
      4.64622     16.53531     12.47363        -0.714308      6.164281     -0.359731
      5.01871      6.64074     16.22708        -0.005128      0.000874     -0.005682
     15.76940     14.74503     15.98278         0.002339     -0.000196      0.001710
      5.07264     11.62539     14.47654        -0.000666     -0.000702     -0.000489
      8.63383     13.32142     12.34509        -0.273954     -0.037874      0.045992
     18.66924     16.09843     16.01181        -0.001157     -0.002273      0.003015
     20.59703     16.53098     13.76345         0.000025      0.002136      0.003810
     13.49131     10.40961     13.75759        -0.000429     -0.000941     -0.000244
     13.81097      2.10044     14.11641         0.000744      0.003763      0.001374
     20.08975      2.75648     13.31200        -0.185464      0.026434     -0.436198
     19.55912     10.94082     17.36315        -0.005765      0.001827     -0.006466
      3.13099      6.52942      9.59393        -0.096795     -0.107436      0.035512
     18.51026      5.07285     11.87902        -0.292062      0.106296      0.068170
      9.34523      3.21643     10.64590        -0.132459     -0.312423      0.216639
     20.04064     13.59285     16.03497         0.001128     -0.002851      0.000153
      6.62293     16.93071     14.77412        -0.002671     -0.000146     -0.001996
      0.54021      5.98812     13.50205         0.291759      0.195349     -0.389261
     13.45118     12.60314     11.70944         3.895189     -0.906423     -2.454739
      5.39024     13.63805     12.15046         0.135511     -0.590965      0.004184
     13.89672      5.16154     14.74419         0.007632      0.001535      0.004043
     22.82552      4.93271     16.20235         0.011623      0.003073      0.002543
     20.81045      0.46044     11.40393         0.027809      0.032989      0.090849
      2.44987      3.54161     13.91969        -0.004483     -0.001141     -0.000924
      1.12715     13.28354     12.97472        -0.132461     -0.562986     -0.260785
      5.43141      3.73024     15.08494        -0.003790      0.001738     -0.007887
     13.14328      4.67139     10.24864         8.350653     -5.352820     -3.592613
     11.15473     11.34347     16.70578        -0.000958      0.000816      0.000711
      6.57900     13.96091     16.06885        -0.004198      0.000904     -0.001853
      4.88127     11.65920      9.99509         0.080883     -0.068284      0.009026
     17.33344     12.88050     14.40484         0.001212      0.003069     -0.000735
     23.09653     17.95029     14.79557        -0.002195      0.000303     -0.000826
     16.46059     13.35206     11.67438        -0.719971     -1.369320      0.340626
     18.44864      1.07619     15.50933        -0.001045     -0.001836      0.000847
     10.68290      5.95195     11.00304        -1.150967      0.556957      0.446227
     10.52894     16.96102     15.97232        -0.004832      0.001316     -0.008674
     11.90449      0.74688     15.74821        -0.003382     -0.001466     -0.005981
      5.71814      6.71222     11.31648         0.022915     -0.117698     -0.124485
     15.41693      5.98005     12.10687        -0.159868     -0.449906     -0.813343
     10.76380      5.77123     14.22253         0.010840     -0.000358     -0.001762
      7.89661     10.69049     10.72869        -0.111805     -0.062929     -0.049393
     18.80209      8.63396     15.58676        -0.000372     -0.001234     -0.002886
      1.62029     16.28844     12.91761        -0.316686      6.431579     -0.552699
      4.96103      2.61769     10.04353        -0.069649     -0.046478      0.045613
      1.83153      8.95162     13.29887         0.011002     -0.134939     -0.330253
     13.05344     15.44546     12.76235       -22.318478    -15.872185      4.715948
     16.81434     10.59611     16.38809         0.000486      0.000161     -0.004073
      6.71066      3.80730     12.34244        -0.217813      0.005307     -0.778409
      2.06227     11.33370     15.25795        -0.002640     -0.002773     -0.002872
      8.27532      0.34196     15.53038         0.001108      0.003015     -0.004085
     11.37535      8.73431     15.35712        -0.003932      0.002915     -0.000428
     11.52759      8.96761     18.70209         0.004368      0.003334      0.009017
 -----------------------------------------------------------------------------------
    total drift:                                0.399318      0.481167      0.187123


--------------------------------------------------------------------------------------------------------



  FREE ENERGIE OF THE ION-ELECTRON SYSTEM (eV)
  ---------------------------------------------------
  free  energy   TOTEN  =     -1859.95965230 eV

  energy  without entropy=    -1859.95965230  energy(sigma->0) =    -1859.95965230



--------------------------------------------------------------------------------------------------------


    POTLOK:  cpu time    2.9827: real time    2.9956


--------------------------------------------------------------------------------------------------------


 NEB: the previous image is higher in energy: F
 NEB: the next image is higher in energy    : F
 NEB: image is at an extrema
 NEB: diff energy (min, max):     0.200869    0.574144

 NEB: Tangent
 ----------------------------------------------
     -0.01232      0.24622     -0.03411
     -0.02951     -0.33897      0.09757
      0.00402     -0.00260      0.00138
      0.00000      0.00000      0.00000
      0.00000      0.00000      0.00000
      0.00000      0.00000      0.00000
      0.00000      0.00000      0.00000
      0.00000      0.00000      0.00000
      0.00000      0.00000      0.00000
      0.00009      0.00001     -0.00083
      0.00000      0.00000      0.00000
      0.00077      0.00054     -0.00038
      0.08297      0.11233     -0.05539
     -0.00039     -0.00018      0.00040
     -0.00042     -0.00026      0.00072
      0.00000      0.00000      0.00000
      0.00000      0.00000      0.00000
      0.00391      0.00546      0.00372
      0.00000      0.00000      0.00000
      0.00000      0.00000      0.00000
      0.00000      0.00000      0.00000
      0.00000      0.00000      0.00000
      0.00000      0.00000      0.00000
     -0.00031      0.00233     -0.00202
      0.00000      0.00000      0.00000
      0.00000      0.00000      0.00000
      0.00000      0.00000      0.00000
      0.00000      0.00000      0.00000
      0.00000      0.00000      0.00000
      0.00000      0.00000      0.00000
      0.00037     -0.00268      0.00017
     -0.02097     -0.01184     -0.01344
     -0.00060     -0.00008      0.00040
      0.00000      0.00000      0.00000
      0.00000      0.00000      0.00000
      0.00000      0.00000      0.00000
      0.00000      0.00000      0.00000
      0.00000      0.00000      0.00000
      0.00000      0.00000      0.00000
      0.00000      0.00000      0.00000
      0.00000      0.00000      0.00000
      0.00000      0.00000      0.00000
     -0.00163      0.00278     -0.00030
      0.00270      0.00093      0.00158
     -0.00484      0.00629      0.00101
      0.00183     -0.00007      0.00139
     -0.01523      0.26552     -0.02089
      0.04445      0.10540     -0.01780
      0.01168     -0.15580      0.08930
     -0.28319     -0.63755      0.13297
      0.00000      0.00000      0.00000
      0.00000      0.00000      0.00000
     -0.00095      0.00205     -0.00115
     -0.00078      0.00202     -0.00152
     -0.00031     -0.00083      0.00064
      0.00000      0.00000      0.00000
      0.00000      0.00000      0.00000
      0.00000      0.00000      0.00000
      0.00000      0.00000      0.00000
     -0.00028      0.00143     -0.00369
      0.00000      0.00000      0.00000
      0.00000      0.00000      0.00000
     -0.00189      0.00328      0.00034
      0.00000      0.00000      0.00000
     -0.00620      0.00472      0.00207
      0.00000      0.00000      0.00000
      0.00000      0.00000      0.00000
      0.00000      0.00000      0.00000
     -0.00030      0.00002     -0.00029
     -0.00019     -0.00034     -0.00008
      0.00282     -0.00554      0.01161
      0.00000      0.00000      0.00000
      0.00000      0.00000      0.00000
      0.00000      0.00000      0.00000
      0.00000      0.00000      0.00000
      0.00000      0.00000      0.00000
     -0.00025     -0.00060      0.00066
      0.00165      0.01038     -0.00577
      0.00781      0.00284     -0.00717
     -0.00031      0.00035      0.00031
      0.00000      0.00000      0.00000
      0.00000      0.00000      0.00000
      0.00000      0.00000      0.00000
     -0.00025      0.00068      0.00214
      0.00000      0.00000      0.00000
      0.00000      0.00000      0.00000
      0.00000      0.00000      0.00000
      0.00000      0.00000      0.00000
      0.00000      0.00000      0.00000
     -0.00052      0.00108      0.00033
      0.00263      0.00278     -0.00019
     -0.00095     -0.00101      0.00002
      0.00000      0.00000      0.00000
      0.00000      0.00000      0.00000
      0.00581     -0.00009     -0.00413
      0.00000      0.00000      0.00000
     -0.00239      0.00216     -0.00004
     -0.00694      0.00603     -0.00055
      0.00000      0.00000      0.00000
      0.00057      0.00069      0.00028
      0.00014      0.00109      0.00086
      0.00206      0.00002      0.00078
     -0.00030      0.00018     -0.00042
      0.00000      0.00000      0.00000
      0.00423      0.00500     -0.01102
     -0.00260      0.00117     -0.00132
      0.00000      0.00000      0.00000
      0.00000      0.00000      0.00000
      0.00000      0.00000      0.00000
     -0.00131      0.00092     -0.00078
     -0.00035      0.00014      0.00046
      0.00000      0.00000      0.00000
     -0.00081      0.00217      0.00096
     -0.00017      0.00009      0.00020
      0.00000      0.00000      0.00000
      0.00000      0.00000      0.00000
      0.00000      0.00000      0.00000
     -0.04313      0.03016     -0.01258
      0.00000      0.00000      0.00000
      0.00000      0.00000      0.00000
      0.00516     -0.00017      0.00541
      0.00000      0.00000      0.00000
      0.00600      0.01080     -0.01354
      0.00000      0.00000      0.00000
     -0.00004      0.00007      0.00085
      0.00000      0.00000      0.00000
      0.00829     -0.00767      0.00608
      0.00000      0.00000      0.00000
      0.00087      0.00025      0.00033
      0.00000      0.00000      0.00000
     -0.00178     -0.00019      0.00311
      0.00235     -0.00040      0.00318
      0.00000      0.00000      0.00000
     -0.00223      0.00026     -0.00007
      0.00000      0.00000      0.00000
     -0.01281     -0.05087      0.01506
      0.00000      0.00000      0.00000
      0.00000      0.00000      0.00000
      0.00011     -0.00222      0.00002
      0.00000      0.00000      0.00000
      0.00000      0.00000      0.00000
     -0.00088     -0.00011      0.00078
      0.00000      0.00000      0.00000
      0.00000      0.00000      0.00000
      0.00000      0.00000      0.00000
      0.00000      0.00000      0.00000
     -0.00012     -0.00027      0.00031
     -0.00394      0.00365     -0.00110
      0.00000      0.00000      0.00000
      0.00000      0.00000      0.00000
      0.00000      0.00000      0.00000
      0.00116     -0.00366     -0.00097
      0.00000      0.00000      0.00000
     -0.00015     -0.00028      0.00049
     -0.00082      0.00262     -0.00080
     -0.00725     -0.00119      0.00139
      0.00000      0.00000      0.00000
     -0.00073      0.00242     -0.00151
      0.00000      0.00000      0.00000
      0.00143      0.00195     -0.00197
      0.00000      0.00000      0.00000
     -0.00055      0.00049     -0.00090
     -0.00080      0.00582      0.00074
      0.00000      0.00000      0.00000
     -0.00163      0.00121     -0.00144
      0.00000      0.00000      0.00000
      0.00000     -0.00057      0.00012
      0.00000      0.00000      0.00000
      0.00074      0.00053      0.00112
      0.00000      0.00000      0.00000
      0.00000      0.00000      0.00000
      0.00247     -0.00238     -0.00101
      0.00000      0.00000      0.00000
      0.00000      0.00000      0.00000
      0.00000      0.00000      0.00000
      0.00000      0.00000      0.00000
      0.00005     -0.00083      0.00088
     -0.00056      0.00005      0.00047
      0.00000      0.00000      0.00000
      0.00000      0.00000      0.00000
      0.00000      0.00000      0.00000
      0.00000      0.00000      0.00000
      0.00000      0.00000      0.00000
      0.00089      0.00050     -0.00095
      0.00000      0.00000      0.00000
     -0.00069      0.00037      0.00085
      0.00000      0.00000      0.00000
      0.00000      0.00000      0.00000
      0.00000      0.00000      0.00000
      0.00000      0.00000      0.00000
      0.00000      0.00000      0.00000
      0.00000      0.00000      0.00000
      0.00013      0.00055      0.00035
     -0.00429     -0.00489     -0.00264
     -0.00148     -0.00026      0.00378
      0.00032      0.00101     -0.00024
     -0.00489      0.00566     -0.00097
     -0.00363     -0.00001      0.00179
     -0.00019      0.00263     -0.00100
     -0.00259     -0.00011     -0.00053
      0.00012      0.00023     -0.00005
     -0.00057      0.00146     -0.00072
     -0.00163      0.00052      0.00115
      0.31720      0.15674      0.07081
      0.12942     -0.05068      0.03111
      0.00000      0.00000      0.00000
     -0.00262      0.00500     -0.00214
      0.00000      0.00000      0.00000
      0.00000      0.00000      0.00000
      0.00000      0.00000      0.00000
     -0.00008     -0.00004     -0.00080
     -0.00557      0.00004     -0.00033
      0.00015     -0.00025      0.00038
      0.00000      0.00000      0.00000
      0.00000      0.00000      0.00000
      0.00104      0.00190     -0.00460
      0.00000      0.00000      0.00000
      0.00000      0.00000      0.00000
      0.00000      0.00000      0.00000
      0.00000      0.00000      0.00000
      0.00000      0.00000      0.00000
      0.00012     -0.00005      0.00017
     -0.00194     -0.00130      0.00027
     -0.00017      0.00109      0.00060
      0.00000      0.00000      0.00000
     -0.00187      0.00007     -0.00086
     -0.00012     -0.00011      0.00004
     -0.00085     -0.00110      0.00149
     -0.00044     -0.00251     -0.00037
      0.00000      0.00000      0.00000
     -0.00382      0.00299     -0.00003
      0.00000      0.00000      0.00000
      0.00000      0.00000      0.00000
      0.00000      0.00000      0.00000
     -0.00152      0.00249     -0.00084
     -0.00018      0.00015     -0.00000
      0.00000      0.00000      0.00000
      0.00000      0.00000      0.00000
      0.00000      0.00000      0.00000
     -0.00031     -0.00635     -0.00392
      0.00109      0.00101     -0.00120
      0.00000      0.00000      0.00000
     -0.00026     -0.00042      0.00003
      0.00000      0.00000      0.00000
     -0.00020     -0.00022     -0.00036
      0.00000      0.00000      0.00000
     -0.01168      0.00818      0.00006
      0.00025      0.00003      0.00114
      0.00000      0.00000      0.00000
     -0.00125      0.00081     -0.00024
     -0.00017     -0.00042      0.00022
      0.00000      0.00000      0.00000
     -0.00031      0.00019     -0.00004
      0.00000      0.00000      0.00000
     -0.00239      0.00221      0.00043
     -0.00104      0.00005      0.00093
      0.00000      0.00000      0.00000
      0.00000      0.00000      0.00000
      0.00327      0.00481     -0.00111
      0.00000      0.00000      0.00000
     -0.00210      0.00216     -0.00083
      0.00000      0.00000      0.00000
      0.00000      0.00000      0.00000
      0.00000      0.00000      0.00000
      0.00000      0.00000      0.00000
     -0.00329      0.00137      0.00040
      0.00000      0.00000      0.00000
     -0.00074      0.00103      0.00127
     -0.00099      0.00192     -0.00162
      0.00568      0.00220      0.01137
      0.05500      0.07671      0.01078

 NEB: forces: par spring, perp REAL, dneb     0.538838    0.106303    0.000000
 NEB: distance to prev, next image, angle between     1.139902    1.032135  124.894868
 NEB: projections on to tangent (spring, REAL)    -0.538838    0.003040

 stress matrix after NEB project (eV)
    -32.53618      0.11878      0.36718
      0.11878    -33.29303     -0.04419
      0.36718     -0.04419    -25.00660
  FORCES: max atom, RMS     0.037831    0.006460
  FORCE total and by dimension    0.106346    0.028594
  Stress total and by dimension   52.845635   33.293031
 OPT: skip step - force has converged


--------------------------------------------------------------------------------------------------------


  
 reached required accuracy - stopping structural energy minimisation
     LOOP+:  cpu time 5022.2057: real time 5043.3073
    4ORBIT:  cpu time    0.0000: real time    0.0000

 total amount of memory used by VASP MPI-rank0  2525066. kBytes
=======================================================================

   base      :      30000. kBytes
   nonlr-proj:      16633. kBytes
   fftplans  :      79581. kBytes
   grid      :     173670. kBytes
   one-center:       1057. kBytes
   wavefun   :    2224125. kBytes

  
  
 General timing and accounting informations for this job:
 ========================================================
  
                  Total CPU time used (sec):     5118.608
                            User time (sec):     5114.083
                          System time (sec):        4.525
                         Elapsed time (sec):     5140.074
  
                   Maximum memory used (kb):     2796176.
                   Average memory used (kb):           0.
  
                          Minor page faults:      1200173
                          Major page faults:          142
                 Voluntary context switches:         2230
