 vasp.5.4.4.18Apr17-6-g9f103f2a35 (build May 20 2022 18:47:50) complex           
 executed on             LinuxPGI date 2022.08.31  14:55:10
 running on  256 total cores
 distrk:  each k-point on  256 cores,    1 groups
 distr:  one band on NCORES_PER_BAND=   4 cores,   64 groups


--------------------------------------------------------------------------------------------------------


 INCAR:
 POTCAR:    PAW_PBE C 08Apr2002                   
 POTCAR:    PAW_PBE H 15Jun2001                   
 POTCAR:    PAW_PBE O 08Apr2002                   
 POTCAR:    PAW_PBE Si 05Jan2001                  
 POTCAR:    PAW_PBE W 08Apr2002                   

 ----------------------------------------------------------------------------- 
|                                                                             |
|           W    W    AA    RRRRR   N    N  II  N    N   GGGG   !!!           |
|           W    W   A  A   R    R  NN   N  II  NN   N  G    G  !!!           |
|           W    W  A    A  R    R  N N  N  II  N N  N  G       !!!           |
|           W WW W  AAAAAA  RRRRR   N  N N  II  N  N N  G  GGG   !            |
|           WW  WW  A    A  R   R   N   NN  II  N   NN  G    G                |
|           W    W  A    A  R    R  N    N  II  N    N   GGGG   !!!           |
|                                                                             |
|      For optimal performance we recommend to set                            |
|        NCORE= 4 - approx SQRT( number of cores)                             |
|      NCORE specifies how many cores store one orbital (NPAR=cpu/NCORE).     |
|      This setting can  greatly improve the performance of VASP for DFT.     |
|      The default,   NCORE=1            might be grossly inefficient         |
|      on modern multi-core architectures or massively parallel machines.     |
|      Do your own testing !!!!                                               |
|      Unfortunately you need to use the default for GW and RPA calculations. |
|      (for HF NCORE is supported but not extensively tested yet)             |
|                                                                             |
 ----------------------------------------------------------------------------- 

 POTCAR:    PAW_PBE C 08Apr2002                   
   VRHFIN =C: s2p2                                                              
   LEXCH  = PE                                                                  
   EATOM  =   147.1560 eV,   10.8157 Ry                                         
                                                                                
   TITEL  = PAW_PBE C 08Apr2002                                                 
   LULTRA =        F    use ultrasoft PP ?                                      
   IUNSCR =        1    unscreen: 0-lin 1-nonlin 2-no                           
   RPACOR =    1.200    partial core radius                                     
   POMASS =   12.011; ZVAL   =    4.000    mass and valenz                      
   RCORE  =    1.500    outmost cutoff radius                                   
   RWIGS  =    1.630; RWIGS  =    0.863    wigner-seitz radius (au A)           
   ENMAX  =  400.000; ENMIN  =  300.000 eV                                      
   ICORE  =        2    local potential                                         
   LCOR   =        T    correct aug charges                                     
   LPAW   =        T    paw PP                                                  
   EAUG   =  644.873                                                            
   DEXC   =    0.000                                                            
   RMAX   =    1.529    core radius for proj-oper                               
   RAUG   =    1.300    factor for augmentation sphere                          
   RDEP   =    1.501    radius for radial grids                                 
   RDEPT  =    1.300    core radius for aug-charge                              
                                                                                
   Atomic configuration                                                         
    4 entries                                                                   
     n  l   j            E        occ.                                          
     1  0  0.50      -273.3789   2.0000                                         
     2  0  0.50       -13.7508   2.0000                                         
     2  1  0.50        -5.2854   2.0000                                         
     3  2  1.50        -5.4423   0.0000                                         
   Description                                                                  
     l       E           TYP  RCUT    TYP  RCUT                                 
     0    -13.7508458     23  1.200                                             
     0     -8.2022199     23  1.200                                             
     1     -5.2854383     23  1.500                                             
     1     34.0145650     23  1.500                                             
     2     -5.4423304      7  1.500                                             
  local pseudopotential read in
  partial core-charges read in
  partial kinetic energy density read in
  atomic valenz-charges read in
  non local Contribution for L=            0  read in
    real space projection operators read in
  non local Contribution for L=            0  read in
    real space projection operators read in
  non local Contribution for L=            1  read in
    real space projection operators read in
  non local Contribution for L=            1  read in
    real space projection operators read in
    PAW grid and wavefunctions read in
 
   number of l-projection  operators is LMAX  =            4
   number of lm-projection operators is LMMAX =            8
 
 POTCAR:    PAW_PBE H 15Jun2001                   
   VRHFIN =H: ultrasoft test                                                    
   LEXCH  = PE                                                                  
   EATOM  =    12.4884 eV,    0.9179 Ry                                         
                                                                                
   TITEL  = PAW_PBE H 15Jun2001                                                 
   LULTRA =        F    use ultrasoft PP ?                                      
   IUNSCR =        0    unscreen: 0-lin 1-nonlin 2-no                           
   RPACOR =    0.000    partial core radius                                     
   POMASS =    1.000; ZVAL   =    1.000    mass and valenz                      
   RCORE  =    1.100    outmost cutoff radius                                   
   RWIGS  =    0.700; RWIGS  =    0.370    wigner-seitz radius (au A)           
   ENMAX  =  250.000; ENMIN  =  200.000 eV                                      
   RCLOC  =    0.701    cutoff for local pot                                    
   LCOR   =        T    correct aug charges                                     
   LPAW   =        T    paw PP                                                  
   EAUG   =  400.000                                                            
   RMAX   =    1.123    core radius for proj-oper                               
   RAUG   =    1.200    factor for augmentation sphere                          
   RDEP   =    1.112    radius for radial grids                                 
   RDEPT  =    0.926    core radius for aug-charge                              
                                                                                
   Atomic configuration                                                         
    2 entries                                                                   
     n  l   j            E        occ.                                          
     1  0  0.50        -6.4927   1.0000                                         
     2  1  0.50        -3.4015   0.0000                                         
   Description                                                                  
     l       E           TYP  RCUT    TYP  RCUT                                 
     0     -6.4927494     23  1.100                                             
     0      6.8029130     23  1.100                                             
     1     -4.0817478     23  1.100                                             
  local pseudopotential read in
  atomic valenz-charges read in
  non local Contribution for L=            0  read in
    real space projection operators read in
  non local Contribution for L=            0  read in
    real space projection operators read in
  non local Contribution for L=            1  read in
    real space projection operators read in
    PAW grid and wavefunctions read in
 
   number of l-projection  operators is LMAX  =            3
   number of lm-projection operators is LMMAX =            5
 
 POTCAR:    PAW_PBE O 08Apr2002                   
   VRHFIN =O: s2p4                                                              
   LEXCH  = PE                                                                  
   EATOM  =   432.3788 eV,   31.7789 Ry                                         
                                                                                
   TITEL  = PAW_PBE O 08Apr2002                                                 
   LULTRA =        F    use ultrasoft PP ?                                      
   IUNSCR =        1    unscreen: 0-lin 1-nonlin 2-no                           
   RPACOR =    1.200    partial core radius                                     
   POMASS =   16.000; ZVAL   =    6.000    mass and valenz                      
   RCORE  =    1.520    outmost cutoff radius                                   
   RWIGS  =    1.550; RWIGS  =    0.820    wigner-seitz radius (au A)           
   ENMAX  =  400.000; ENMIN  =  300.000 eV                                      
   ICORE  =        2    local potential                                         
   LCOR   =        T    correct aug charges                                     
   LPAW   =        T    paw PP                                                  
   EAUG   =  605.392                                                            
   DEXC   =    0.000                                                            
   RMAX   =    1.553    core radius for proj-oper                               
   RAUG   =    1.300    factor for augmentation sphere                          
   RDEP   =    1.550    radius for radial grids                                 
   RDEPT  =    1.329    core radius for aug-charge                              
                                                                                
   Atomic configuration                                                         
    4 entries                                                                   
     n  l   j            E        occ.                                          
     1  0  0.50      -514.6923   2.0000                                         
     2  0  0.50       -23.9615   2.0000                                         
     2  1  0.50        -9.0305   4.0000                                         
     3  2  1.50        -9.5241   0.0000                                         
   Description                                                                  
     l       E           TYP  RCUT    TYP  RCUT                                 
     0    -23.9615318     23  1.200                                             
     0     -9.5240782     23  1.200                                             
     1     -9.0304911     23  1.520                                             
     1      8.1634956     23  1.520                                             
     2     -9.5240782      7  1.500                                             
  local pseudopotential read in
  partial core-charges read in
  partial kinetic energy density read in
  kinetic energy density of atom read in
  atomic valenz-charges read in
  non local Contribution for L=            0  read in
    real space projection operators read in
  non local Contribution for L=            0  read in
    real space projection operators read in
  non local Contribution for L=            1  read in
    real space projection operators read in
  non local Contribution for L=            1  read in
    real space projection operators read in
    PAW grid and wavefunctions read in
 
   number of l-projection  operators is LMAX  =            4
   number of lm-projection operators is LMMAX =            8
 
 POTCAR:    PAW_PBE Si 05Jan2001                  
   VRHFIN =Si: s2p2                                                             
   LEXCH  = PE                                                                  
   EATOM  =   103.0669 eV,    7.5752 Ry                                         
                                                                                
   TITEL  = PAW_PBE Si 05Jan2001                                                
   LULTRA =        F    use ultrasoft PP ?                                      
   IUNSCR =        1    unscreen: 0-lin 1-nonlin 2-no                           
   RPACOR =    1.500    partial core radius                                     
   POMASS =   28.085; ZVAL   =    4.000    mass and valenz                      
   RCORE  =    1.900    outmost cutoff radius                                   
   RWIGS  =    2.480; RWIGS  =    1.312    wigner-seitz radius (au A)           
   ENMAX  =  245.345; ENMIN  =  184.009 eV                                      
   ICORE  =        2    local potential                                         
   LCOR   =        T    correct aug charges                                     
   LPAW   =        T    paw PP                                                  
   EAUG   =  322.069                                                            
   DEXC   =    0.000                                                            
   RMAX   =    1.950    core radius for proj-oper                               
   RAUG   =    1.300    factor for augmentation sphere                          
   RDEP   =    1.993    radius for radial grids                                 
   RDEPT  =    1.837    core radius for aug-charge                              
                                                                                
   Atomic configuration                                                         
    6 entries                                                                   
     n  l   j            E        occ.                                          
     1  0  0.50     -1785.8828   2.0000                                         
     2  0  0.50      -139.4969   2.0000                                         
     2  1  1.50       -95.5546   6.0000                                         
     3  0  0.50       -10.8127   2.0000                                         
     3  1  0.50        -4.0811   2.0000                                         
     3  2  1.50        -4.0817   0.0000                                         
   Description                                                                  
     l       E           TYP  RCUT    TYP  RCUT                                 
     0    -10.8127223     23  1.900                                             
     0     -7.6451159     23  1.900                                             
     1     -4.0811372     23  1.900                                             
     1      2.4879257     23  1.900                                             
     2     -4.0817478      7  1.900                                             
  local pseudopotential read in
  partial core-charges read in
  partial kinetic energy density read in
  atomic valenz-charges read in
  non local Contribution for L=            0  read in
    real space projection operators read in
  non local Contribution for L=            0  read in
    real space projection operators read in
  non local Contribution for L=            1  read in
    real space projection operators read in
  non local Contribution for L=            1  read in
    real space projection operators read in
    PAW grid and wavefunctions read in
 
   number of l-projection  operators is LMAX  =            4
   number of lm-projection operators is LMMAX =            8
 
 POTCAR:    PAW_PBE W 08Apr2002                   
   VRHFIN =W : 6s5d                                                             
   LEXCH  = PE                                                                  
   EATOM  =   204.6103 eV,   15.0384 Ry                                         
                                                                                
   TITEL  = PAW_PBE W 08Apr2002                                                 
   LULTRA =        F    use ultrasoft PP ?                                      
   IUNSCR =        1    unscreen: 0-lin 1-nonlin 2-no                           
   RPACOR =    2.330    partial core radius                                     
   POMASS =  183.850; ZVAL   =    6.000    mass and valenz                      
   RCORE  =    2.750    outmost cutoff radius                                   
   RWIGS  =    2.750; RWIGS  =    1.455    wigner-seitz radius (au A)           
   ENMAX  =  223.057; ENMIN  =  167.293 eV                                      
   RCLOC  =    2.147    cutoff for local pot                                    
   LCOR   =        T    correct aug charges                                     
   LPAW   =        T    paw PP                                                  
   EAUG   =  373.438                                                            
   DEXC   =    0.000                                                            
   RMAX   =    2.801    core radius for proj-oper                               
   RAUG   =    1.300    factor for augmentation sphere                          
   RDEP   =    2.886    radius for radial grids                                 
   RDEPT  =    2.230    core radius for aug-charge                              
                                                                                
   Atomic configuration                                                         
   16 entries                                                                   
     n  l   j            E        occ.                                          
     1  0  0.50    -69465.5836   2.0000                                         
     2  0  0.50    -11986.2642   2.0000                                         
     2  1  1.50    -10479.8616   6.0000                                         
     3  0  0.50     -2759.0758   2.0000                                         
     3  1  1.50     -2313.1857   6.0000                                         
     3  2  2.50     -1801.1185  10.0000                                         
     4  0  0.50      -567.6791   2.0000                                         
     4  1  1.50      -421.4694   6.0000                                         
     4  2  2.50      -236.3473  10.0000                                         
     4  3  3.50       -31.2666  14.0000                                         
     5  0  0.50       -77.1085   2.0000                                         
     5  1  1.50       -41.3856   6.0000                                         
     5  2  2.50        -3.3185   5.0000                                         
     6  0  0.50        -5.1438   1.0000                                         
     6  1  0.50        -3.8096   0.0000                                         
     5  3  2.50        -1.3606   0.0000                                         
   Description                                                                  
     l       E           TYP  RCUT    TYP  RCUT                                 
     2     -3.3185288     23  2.500                                             
     2     -1.5965414     23  2.500                                             
     0     -5.1438054     23  2.500                                             
     0      4.9117504     23  2.500                                             
     1      2.7211652     23  2.750                                             
     1     27.2116520     23  2.750                                             
  local pseudopotential read in
  partial core-charges read in
  partial kinetic energy density read in
  atomic valenz-charges read in
  non local Contribution for L=            2  read in
    real space projection operators read in
  non local Contribution for L=            2  read in
    real space projection operators read in
  non local Contribution for L=            0  read in
    real space projection operators read in
  non local Contribution for L=            0  read in
    real space projection operators read in
  non local Contribution for L=            1  read in
    real space projection operators read in
  non local Contribution for L=            1  read in
    real space projection operators read in
    PAW grid and wavefunctions read in
 
   number of l-projection  operators is LMAX  =            6
   number of lm-projection operators is LMMAX =           18
 
 Optimization of the real space projectors (new method)

 maximal supplied QI-value         = 25.13
 optimisation between [QCUT,QGAM] = [ 11.31, 22.87] = [ 35.82,146.48] Ry 
 Optimized for a Real-space Cutoff    1.00 Angstroem

   l    n(q)    QCUT    max X(q) W(low)/X(q) W(high)/X(q)  e(spline) 
   0      7    11.310   115.676    0.43E-03    0.13E-02    0.19E-06
   0      7    11.310    87.132    0.43E-03    0.13E-02    0.18E-06
   1      6    11.310     4.429    0.42E-03    0.74E-03    0.11E-06
   1      6    11.310     2.733    0.34E-03    0.55E-03    0.92E-07
 Optimization of the real space projectors (new method)

 maximal supplied QI-value         = 34.20
 optimisation between [QCUT,QGAM] = [ 11.29, 22.57] = [ 35.68,142.71] Ry 
 Optimized for a Real-space Cutoff    1.16 Angstroem

   l    n(q)    QCUT    max X(q) W(low)/X(q) W(high)/X(q)  e(spline) 
   0      8    11.287    19.460    0.40E-03    0.73E-03    0.16E-06
   0      8    11.287    12.209    0.38E-03    0.70E-03    0.15E-06
   1      7    11.287     4.655    0.22E-03    0.25E-04    0.22E-06
 Optimization of the real space projectors (new method)

 maximal supplied QI-value         = 24.76
 optimisation between [QCUT,QGAM] = [ 11.39, 22.77] = [ 36.31,145.25] Ry 
 Optimized for a Real-space Cutoff    1.00 Angstroem

   l    n(q)    QCUT    max X(q) W(low)/X(q) W(high)/X(q)  e(spline) 
   0      7    11.387    20.381    0.39E-03    0.13E-02    0.15E-06
   0      7    11.387    15.268    0.42E-03    0.14E-02    0.17E-06
   1      6    11.387     5.964    0.41E-03    0.11E-02    0.17E-06
   1      6    11.387     5.382    0.39E-03    0.87E-03    0.15E-06
 Optimization of the real space projectors (new method)

 maximal supplied QI-value         = 19.84
 optimisation between [QCUT,QGAM] = [ 11.31, 22.82] = [ 35.82,145.81] Ry 
 Optimized for a Real-space Cutoff    1.16 Angstroem

   l    n(q)    QCUT    max X(q) W(low)/X(q) W(high)/X(q)  e(spline) 
   0      8    11.310   159.560    0.27E-03    0.30E-03    0.39E-07
   0      8    11.310   115.863    0.27E-03    0.30E-03    0.38E-07
   1      7    11.310    88.339    0.28E-03    0.28E-03    0.77E-07
   1      7    11.310    48.592    0.27E-03    0.27E-03    0.74E-07
 Optimization of the real space projectors (new method)

 maximal supplied QI-value         = 13.61
 optimisation between [QCUT,QGAM] = [ 11.43, 22.86] = [ 36.58,146.31] Ry 
 Optimized for a Real-space Cutoff    1.56 Angstroem

   l    n(q)    QCUT    max X(q) W(low)/X(q) W(high)/X(q)  e(spline) 
   2     10    11.429   130.855    0.22E-03    0.64E-03    0.11E-05
   2     10    11.429   114.007    0.22E-03    0.64E-03    0.11E-05
   0     11    11.429    84.709    0.39E-04    0.67E-04    0.23E-06
   0     11    11.429    49.163    0.35E-04    0.62E-04    0.21E-06
   1     10    11.429    15.765    0.84E-04    0.15E-03    0.24E-06
   1     10    11.429    10.638    0.58E-04    0.12E-03    0.19E-06

 ----------------------------------------------------------------------------- 
|                                                                             |
|  ADVICE TO THIS USER RUNNING 'VASP/VAMP'   (HEAR YOUR MASTER'S VOICE ...):  |
|                                                                             |
|      You enforced a specific xc-type in the INCAR file,                     |
|      a different type was found on the POTCAR file                          |
|          I HOPE YOU KNOW, WHAT YOU ARE  DOING                               |
|                                                                             |
 ----------------------------------------------------------------------------- 

  PAW_PBE C 08Apr2002                   :
 energy of atom  1       EATOM= -147.1560
 kinetic energy error for atom=    0.0076 (will be added to EATOM!!)
  PAW_PBE H 15Jun2001                   :
 energy of atom  2       EATOM=  -12.4884
 kinetic energy error for atom=    0.0020 (will be added to EATOM!!)
  PAW_PBE O 08Apr2002                   :
 energy of atom  3       EATOM= -432.3788
 kinetic energy error for atom=    0.0224 (will be added to EATOM!!)
  PAW_PBE Si 05Jan2001                  :
 energy of atom  4       EATOM= -103.0669
 kinetic energy error for atom=    0.0006 (will be added to EATOM!!)
  PAW_PBE W 08Apr2002                   :
 energy of atom  5       EATOM= -204.6103
 kinetic energy error for atom=    0.0017 (will be added to EATOM!!)
 
 
 POSCAR:  C  H  O Si  W                          
  positions in direct lattice
  velocities in cartesian coordinates
 exchange correlation table for  LEXCH =        9
   RHO(1)=    0.500       N(1)  =     2000
   RHO(2)=  100.500       N(2)  =     4000
 


--------------------------------------------------------------------------------------------------------


 ion  position               nearest neighbor table
   1  0.567  0.501  0.723-  48 1.11   2 1.51 270 1.90
   2  0.599  0.458  0.762-  49 1.10  47 1.10  50 1.11   1 1.51
   3  0.761  0.104  0.651- 125 0.97
   4  0.926  0.279  0.356-  73 0.98
   5  0.793  0.207  0.373- 108 0.97
   6  0.975  0.944  0.325- 117 0.97
   7  0.626  0.963  0.375- 119 0.98
   8  0.821  0.995  0.369- 137 0.97
   9  0.750  0.141  0.458- 175 0.98
  10  0.915  0.249  0.509- 180 0.97
  11  0.583  0.304  0.306- 185 0.97
  12  0.891  0.335  0.616-  91 0.98
  13  0.587  0.359  0.615- 136 0.97
  14  0.593  0.871  0.578- 178 0.99
  15  0.034  0.338  0.652- 184 0.97
  16  0.935  0.420  0.454- 173 0.98
  17  0.746  0.530  0.422-  87 1.00
  18  0.798  0.382  0.635- 165 0.97
  19  0.591  0.569  0.378-  99 0.99
  20  0.718  0.646  0.383- 122 0.99
  21  0.841  0.542  0.420- 128 0.98
  22  0.005  0.604  0.358- 133 0.97
  23  0.828  0.712  0.468- 174 0.99
  24  0.876  0.599  0.722-  53 0.97
  25  0.520  0.986  0.422- 135 0.99
  26  0.223  0.980  0.393- 176 1.00
  27  0.216  0.238  0.319- 191 0.99
  28  0.158  0.330  0.279- 182 0.97
  29  0.342  0.156  0.331- 183 0.98
  30  0.223  0.046  0.323- 190 0.97
  31  0.511  0.826  0.547- 193 0.97
  32  0.377  0.242  0.648-  78 0.97
  33  0.244  0.094  0.599- 129 0.98
  34  0.315  0.487  0.442-  52 0.99
  35  0.409  0.439  0.406- 141 0.98
  36  0.398  0.793  0.389- 179 0.97
  37  0.244  0.655  0.294- 187 0.97
  38  0.312  0.418  0.369- 188 0.98
  39  0.405  0.584  0.339- 189 0.97
  40  0.139  0.488  0.352- 181 0.98
  41  0.593  0.698  0.352-  82 0.97
  42  0.469  0.861  0.444- 192 0.99
  43  0.122  0.325  0.612- 101 0.97
  44  0.072  0.666  0.645- 132 0.97
  45  0.242  0.386  0.683- 177 0.97
  46  0.246  0.815  0.670- 186 0.97
  47  0.608  0.493  0.795-   2 1.10
  48  0.592  0.546  0.705-   1 1.11
  49  0.574  0.410  0.774-   2 1.10
  50  0.640  0.439  0.747-   2 1.11
  51  0.369  0.648  0.439- 224 1.66 259 1.68
  52  0.347  0.504  0.420-  34 0.99 259 1.67
  53  0.861  0.566  0.697-  24 0.97 230 1.64
  54  0.348  0.959  0.531- 235 1.68 268 1.69
  55  0.033  0.933  0.529- 250 1.63 261 1.66
  56  0.636  0.079  0.489- 228 1.60 217 1.65
  57  0.069  0.052  0.395- 216 1.64 208 1.65
  58  0.452  0.130  0.421- 233 1.65 214 1.65
  59  0.806  0.214  0.483- 232 1.67 229 1.69
  60  0.973  0.182  0.599- 210 1.63 240 1.65
  61  0.275  0.299  0.449- 256 1.65 266 1.66
  62  0.556  0.775  0.442- 237 1.51 264 1.66
  63  0.391  0.973  0.620- 254 1.65 268 1.66
  64  0.178  0.350  0.405- 256 1.66 231 1.67
  65  0.867  0.684  0.637- 234 1.64 230 1.65
  66  0.866  0.967  0.467- 226 1.60 241 1.65
  67  0.301  0.761  0.458- 224 1.65 238 1.67
  68  0.422  0.261  0.380- 233 1.67 253 1.67
  69  0.811  0.465  0.520- 260 1.62 207 1.64
  70  0.984  0.073  0.521- 250 1.68 210 1.69
  71  0.517  0.456  0.625- 269 1.66 270 1.96
  72  0.035  0.920  0.429- 261 1.64 208 1.65
  73  0.963  0.303  0.351-   4 0.98 209 1.65
  74  0.070  0.336  0.376- 209 1.64 231 1.65
  75  0.208  0.729  0.395- 238 1.66 248 1.67
  76  0.039  0.419  0.499- 263 1.64 236 1.65
  77  0.239  0.286  0.588- 244 1.63 221 1.63
  78  0.398  0.195  0.645-  32 0.97 215 1.64
  79  0.455  0.561  0.583- 246 1.68 269 1.68
  80  0.910  0.749  0.558- 234 1.64 213 1.66
  81  0.869  0.108  0.442- 241 1.64 229 1.65
  82  0.573  0.667  0.376-  41 0.97 237 1.68
  83  0.142  0.159  0.376- 262 1.65 216 1.65
  84  0.350  0.766  0.607- 206 1.62 247 1.64
  85  0.911  0.845  0.483- 226 1.62 213 1.66
  86  0.061  0.537  0.442- 263 1.66 205 1.67
  87  0.708  0.555  0.420-  17 1.00 219 1.67
  88  0.075  0.817  0.483- 261 1.50 243 1.65
  89  0.700  0.828  0.433- 218 1.53 251 1.65
  90  0.730  0.049  0.543- 217 1.64 252 1.64
  91  0.919  0.302  0.632-  12 0.98 240 1.63
  92  0.735  0.853  0.613- 225 1.66 222 1.68
  93  0.625  0.527  0.486- 227 1.58 219 1.68
  94  0.557  0.630  0.467- 237 1.52 227 1.63
  95  0.425  0.247  0.555- 258 1.68 215 1.68
  96  0.978  0.728  0.477- 243 1.65 213 1.65
  97  0.654  0.594  0.633- 265 1.64 211 1.67
  98  0.397  0.746  0.515- 206 1.66 224 1.66
  99  0.603  0.518  0.386-  19 0.99 219 1.65
 100  0.720  0.631  0.557- 249 1.63 265 1.64
 101  0.147  0.366  0.620-  43 0.97 221 1.64
 102  0.066  0.548  0.542- 263 1.63 267 1.64
 103  0.819  0.885  0.537- 226 1.65 225 1.67
 104  0.828  0.355  0.452- 232 1.65 207 1.65
 105  0.527  0.299  0.533- 258 1.62 239 1.63
 106  0.737  0.499  0.595- 265 1.65 260 1.66
 107  0.557  0.172  0.395- 245 1.59 214 1.64
 108  0.806  0.256  0.383-   5 0.97 232 1.67
 109  0.237  0.953  0.508- 235 1.58 220 1.67
 110  0.693  0.777  0.541- 249 1.63 222 1.64
 111  0.924  0.950  0.553- 250 1.65 226 1.65
 112  0.526  0.318  0.399- 245 1.45 253 1.66
 113  0.468  0.990  0.546- 254 1.69 255 1.70
 114  0.838  0.095  0.540- 229 1.66 252 1.66
 115  0.538  0.116  0.486- 228 1.61 214 1.67
 116  0.350  0.187  0.440- 266 1.63 233 1.65
 117  0.012  0.962  0.335-   6 0.97 208 1.65
 118  0.459  0.589  0.677- 246 1.66 270 1.96
 119  0.655  0.925  0.379-   7 0.98 218 1.66
 120  0.076  0.686  0.436- 205 1.65 243 1.66
 121  0.452  0.404  0.552- 269 1.67 258 1.70
 122  0.719  0.700  0.380-  20 0.99 251 1.65
 123  0.450  0.703  0.601- 206 1.63 246 1.64
 124  0.753  0.709  0.476- 249 1.62 251 1.69
 125  0.779  0.121  0.621-   3 0.97 252 1.64
 126  0.993  0.308  0.448- 236 1.66 209 1.68
 127  0.532  0.508  0.529- 269 1.64 227 1.65
 128  0.817  0.499  0.423-  21 0.98 207 1.69
 129  0.236  0.146  0.605-  33 0.98 244 1.62
 130  0.204  0.831  0.471- 220 1.50 238 1.63
 131  0.240  0.559  0.523- 223 1.65 212 1.66
 132  0.061  0.625  0.624-  44 0.97 267 1.63
 133  0.046  0.602  0.354-  22 0.97 205 1.65
 134  0.801  0.979  0.606- 225 1.66 252 1.69
 135  0.538  0.028  0.405-  25 0.99 214 1.66
 136  0.606  0.314  0.605-  13 0.97 239 1.64
 137  0.862  0.004  0.369-   8 0.97 241 1.66
 138  0.095  0.149  0.467- 242 1.62 216 1.65
 139  0.171  0.204  0.531- 242 1.61 244 1.63
 140  0.641  0.704  0.455- 237 1.65 251 1.66
 141  0.437  0.410  0.386-  35 0.98 253 1.66
 142  0.574  0.059  0.571- 255 1.62 228 1.65
 143  0.151  0.593  0.389- 248 1.68 205 1.68
 144  0.268  0.602  0.392- 259 1.65 248 1.67
 145  0.440  0.322  0.470- 258 1.64 253 1.69
 146  0.238  0.159  0.430- 262 1.65 266 1.67
 147  0.073  0.150  0.563- 242 1.64 210 1.64
 148  0.845  0.544  0.600- 230 1.66 260 1.66
 149  0.621  0.280  0.411- 257 1.65 245 1.66
 150  0.603  0.892  0.467- 264 1.29 218 1.67
 151  0.031  0.195  0.389- 209 1.66 216 1.66
 152  0.608  0.196  0.547- 228 1.62 239 1.64
 153  0.133  0.938  0.479- 261 1.65 220 1.66
 154  0.080  0.280  0.512- 236 1.64 242 1.65
 155  0.372  0.105  0.568- 268 1.63 215 1.69
 156  0.067  0.697  0.536- 243 1.63 267 1.63
 157  0.666  0.415  0.430- 219 1.65 257 1.65
 158  0.799  0.730  0.564- 249 1.61 234 1.63
 159  0.704  0.957  0.470- 217 1.65 218 1.66
 160  0.597  0.633  0.553- 227 1.62 211 1.63
 161  0.723  0.294  0.452- 232 1.63 257 1.64
 162  0.978  0.314  0.547- 236 1.64 240 1.67
 163  0.158  0.630  0.571- 223 1.63 267 1.65
 164  0.633  0.327  0.508- 239 1.63 257 1.65
 165  0.820  0.396  0.606-  18 0.97 260 1.65
 166  0.959  0.027  0.417- 241 1.64 208 1.65
 167  0.282  0.195  0.519- 266 1.63 244 1.65
 168  0.249  0.443  0.461- 212 1.66 256 1.71
 169  0.272  0.850  0.569- 235 1.64 247 1.65
 170  0.204  0.686  0.487- 223 1.63 238 1.66
 171  0.147  0.476  0.493- 212 1.63 263 1.65
 172  0.225  0.423  0.557- 212 1.61 221 1.63
 173  0.911  0.453  0.474-  16 0.98 207 1.65
 174  0.870  0.705  0.464-  23 0.99 213 1.65
 175  0.738  0.093  0.445-   9 0.98 217 1.66
 176  0.222  0.930  0.408-  26 1.00 220 1.64
 177  0.252  0.402  0.649-  45 0.97 221 1.65
 178  0.630  0.883  0.593-  14 0.99 222 1.62
 179  0.410  0.789  0.423-  36 0.97 224 1.68
 180  0.918  0.196  0.508-  10 0.97 229 1.65
 181  0.133  0.444  0.332-  40 0.98 231 1.65
 182  0.155  0.304  0.311-  28 0.97 231 1.69
 183  0.373  0.131  0.348-  29 0.98 233 1.66
 184  0.035  0.292  0.633-  15 0.97 240 1.66
 185  0.573  0.257  0.320-  11 0.97 245 1.66
 186  0.245  0.770  0.650-  46 0.97 247 1.64
 187  0.207  0.648  0.310-  37 0.97 248 1.65
 188  0.275  0.392  0.367-  38 0.98 256 1.66
 189  0.365  0.598  0.342-  39 0.97 259 1.67
 190  0.226  0.056  0.358-  30 0.97 262 1.69
 191  0.241  0.196  0.329-  27 0.99 262 1.66
 192  0.501  0.892  0.455-  42 0.99 264 1.60
 193  0.550  0.828  0.534-  31 0.97 264 1.67
 194  0.545  0.647  0.635- 211 1.65 246 1.67
 195  0.478  0.122  0.596- 255 1.65 215 1.65
 196  0.262  0.695  0.569- 223 1.65 247 1.65
 197  0.443  0.847  0.582- 254 1.66 206 1.69
 198  0.766  0.617  0.649- 265 1.65 230 1.66
 199  0.845  0.832  0.623- 234 1.66 225 1.68
 200  0.640  0.740  0.621- 211 1.67 222 1.71
 201  0.008  0.033  0.603- 250 1.69 210 1.69
 202  0.284  0.003  0.594- 268 1.70 235 1.70
 203  0.503  0.972  0.629- 254 1.69 255 1.70
 204  0.459  0.429  0.726- 270 1.72
 205  0.083  0.606  0.406- 133 1.65 120 1.65  86 1.67 143 1.68 263 3.13
 206  0.409  0.765  0.575-  84 1.62 123 1.63  98 1.66 197 1.69 247 3.06
 207  0.842  0.441  0.468-  69 1.64 104 1.65 173 1.65 128 1.69
 208  0.017  0.990  0.394-  57 1.65 166 1.65  72 1.65 117 1.65 261 3.11 216 3.13
 209  0.015  0.284  0.391-  74 1.64  73 1.65 151 1.66 126 1.68 236 3.11 216 3.11
 210  0.009  0.115  0.573-  60 1.63 147 1.64  70 1.69 201 1.69 250 2.39 242 3.05 240 3.07
 211  0.610  0.658  0.611- 160 1.63 194 1.65  97 1.67 200 1.67 265 2.87
 212  0.214  0.476  0.510- 172 1.61 171 1.63 168 1.66 131 1.66 223 3.10 256 3.14
 213  0.915  0.756  0.496-  96 1.65 174 1.65  80 1.66  85 1.66 226 2.99 234 3.03
 214  0.521  0.110  0.426- 107 1.64  58 1.65 135 1.66 115 1.67 245 3.08 228 3.12
 215  0.418  0.170  0.589-  78 1.64 195 1.65  95 1.68 155 1.69 268 3.13 255 3.14
 216  0.083  0.139  0.407-  57 1.64 138 1.65  83 1.65 151 1.66 209 3.11 208 3.13 262 3.14
 217  0.702  0.045  0.487-  90 1.64 159 1.65  56 1.65 175 1.66 228 3.09 218 3.10 252 3.15
 218  0.665  0.898  0.437-  89 1.53 159 1.66 119 1.66 150 1.67 264 2.83 251 3.06 217 3.10
 219  0.650  0.504  0.430-  99 1.65 157 1.65  87 1.67  93 1.68 227 3.07
 220  0.198  0.912  0.464- 130 1.50 176 1.64 153 1.66 109 1.67 238 3.01 235 3.06 261 3.07
 221  0.214  0.367  0.603-  77 1.63 172 1.63 101 1.64 177 1.65
 222  0.674  0.814  0.594- 178 1.62 110 1.64  92 1.68 200 1.71 249 2.90
 223  0.217  0.642  0.539- 170 1.63 163 1.63 196 1.65 131 1.65 238 3.09 212 3.10 267 3.12
 224  0.369  0.735  0.459-  67 1.65  98 1.66  51 1.66 179 1.68
 225  0.798  0.889  0.596- 134 1.66  92 1.66 103 1.67 199 1.68 234 2.86 226 2.99 252 3.15
 226  0.880  0.912  0.512-  66 1.60  85 1.62 103 1.65 111 1.65 213 2.99 225 2.99 250 3.05 241 3.13

 227  0.576  0.574  0.512-  93 1.58 160 1.62  94 1.63 127 1.65 237 3.00 219 3.07 269 3.14
 228  0.590  0.116  0.525-  56 1.60 115 1.61 152 1.62 142 1.65 255 2.86 217 3.09 239 3.12 214 3.12

 229  0.858  0.152  0.495- 180 1.65  81 1.65 114 1.66  59 1.69 241 3.07 232 3.15
 230  0.836  0.604  0.646-  53 1.64  65 1.65 198 1.66 148 1.66 265 2.93 234 3.01 260 3.01
 231  0.134  0.360  0.357- 181 1.65  74 1.65  64 1.67 182 1.69 256 3.11
 232  0.791  0.280  0.442- 161 1.63 104 1.65 108 1.67  59 1.67 229 3.15
 233  0.399  0.177  0.396-  58 1.65 116 1.65 183 1.66  68 1.67 253 3.07
 234  0.856  0.750  0.597- 158 1.63  80 1.64  65 1.64 199 1.66 225 2.86 230 3.01 213 3.03
 235  0.283  0.935  0.550- 109 1.58 169 1.64  54 1.68 202 1.70 268 2.38 220 3.06
 236  0.023  0.330  0.502- 154 1.64 162 1.64  76 1.65 126 1.66 240 3.11 209 3.11 242 3.13
 237  0.575  0.695  0.436-  62 1.51  94 1.52 140 1.65  82 1.68 227 3.00 264 3.06 251 3.10
 238  0.230  0.753  0.452- 130 1.63 170 1.66  75 1.66  67 1.67 248 2.97 220 3.01 223 3.09
 239  0.594  0.284  0.548- 164 1.63 105 1.63 136 1.64 152 1.64 228 3.12
 240  0.975  0.272  0.603-  91 1.63  60 1.65 184 1.66 162 1.67 210 3.07 236 3.11
 241  0.889  0.025  0.424-  81 1.64 166 1.64  66 1.65 137 1.66 229 3.07 226 3.13
 242  0.105  0.195  0.518- 139 1.61 138 1.62 147 1.64 154 1.65 210 3.05 236 3.13
 243  0.048  0.733  0.483- 156 1.63  96 1.65  88 1.65 120 1.66 261 3.05 267 3.15
 244  0.232  0.206  0.561- 129 1.62  77 1.63 139 1.63 167 1.65 266 3.02
 245  0.561  0.258  0.381- 112 1.45 107 1.59 149 1.66 185 1.66 253 2.87 214 3.08
 246  0.477  0.627  0.623- 123 1.64 118 1.66 194 1.67  79 1.68 269 3.02 270 3.05
 247  0.281  0.771  0.598- 186 1.64  84 1.64 196 1.65 169 1.65 206 3.06
 248  0.209  0.643  0.372- 187 1.65 144 1.67  75 1.67 143 1.68 238 2.97
 249  0.740  0.711  0.536- 158 1.61 124 1.62 100 1.63 110 1.63 222 2.90 251 2.90 265 3.07
 250  0.987  0.991  0.550-  55 1.63 111 1.65  70 1.68 201 1.69 210 2.39 226 3.05
 251  0.703  0.737  0.434-  89 1.65 122 1.65 140 1.66 124 1.69 249 2.90 218 3.06 237 3.10
 252  0.788  0.060  0.577-  90 1.64 125 1.64 114 1.66 134 1.69 225 3.15 217 3.15
 253  0.456  0.328  0.409- 141 1.66 112 1.66  68 1.67 145 1.69 245 2.87 233 3.07
 254  0.449  0.936  0.595-  63 1.65 197 1.66 113 1.69 203 1.69 255 2.36 268 2.75
 255  0.508  0.041  0.586- 142 1.62 195 1.65 113 1.70 203 1.70 254 2.36 228 2.86 215 3.14
 256  0.244  0.370  0.421-  61 1.65  64 1.66 188 1.66 168 1.71 231 3.11 212 3.14
 257  0.659  0.330  0.450- 161 1.64 149 1.65 157 1.65 164 1.65
 258  0.460  0.318  0.529- 105 1.62 145 1.64  95 1.68 121 1.70
 259  0.337  0.590  0.399- 144 1.65 189 1.67  52 1.67  51 1.68
 260  0.803  0.476  0.580-  69 1.62 165 1.65 148 1.66 106 1.66 265 2.90 230 3.01
 261  0.069  0.899  0.481-  88 1.50  72 1.64 153 1.65  55 1.66 243 3.05 220 3.07 208 3.11
 262  0.212  0.144  0.374-  83 1.65 146 1.65 191 1.66 190 1.69 266 3.12 216 3.14
 263  0.078  0.494  0.495- 102 1.63  76 1.64 171 1.65  86 1.66 267 3.09 205 3.13
 264  0.558  0.852  0.475- 150 1.29 192 1.60  62 1.66 193 1.67 218 2.83 237 3.06
 265  0.719  0.585  0.609- 100 1.64  97 1.64 198 1.65 106 1.65 211 2.87 260 2.90 230 2.93 249 3.07

 266  0.287  0.210  0.459- 167 1.63 116 1.63  61 1.66 146 1.67 244 3.02 262 3.12
 267  0.088  0.625  0.568- 156 1.63 132 1.63 102 1.64 163 1.65 263 3.09 223 3.12 243 3.15
 268  0.353  0.020  0.578- 155 1.63  63 1.66  54 1.69 202 1.70 235 2.38 254 2.75 215 3.13
 269  0.487  0.479  0.572- 127 1.64  71 1.66 121 1.67  79 1.68 246 3.02 227 3.14 270 3.23
 270  0.495  0.493  0.691- 204 1.72   1 1.90 118 1.96  71 1.96 246 3.05 269 3.23
 
  LATTYP: Found a simple orthorhombic cell.
 ALAT       =    18.1212369514
 B/A-ratio  =     1.2919258579
 C/A-ratio  =     1.4835282260
  
  Lattice vectors:
  
 A1 = (   0.0000000000, -18.1212369514,   0.0000000000)
 A2 = ( -23.4112945954,   0.0000000000,   0.0000000000)
 A3 = (   0.0000000000,   0.0000000000, -26.8833665073)


Analysis of symmetry for initial positions (statically):
=====================================================================
 Subroutine PRICEL returns:
 Original cell was already a primitive cell.
 

 Routine SETGRP: Setting up the symmetry group for a 
 simple orthorhombic supercell.


 Subroutine GETGRP returns: Found  1 space group operations
 (whereof  1 operations were pure point group operations)
 out of a pool of  8 trial point group operations.


The static configuration has the point symmetry C_1 .


Analysis of symmetry for dynamics (positions and initial velocities):
=====================================================================
 Subroutine PRICEL returns:
 Original cell was already a primitive cell.
 

 Routine SETGRP: Setting up the symmetry group for a 
 simple orthorhombic supercell.


 Subroutine GETGRP returns: Found  1 space group operations
 (whereof  1 operations were pure point group operations)
 out of a pool of  8 trial point group operations.


The dynamic configuration has the point symmetry C_1 .


Analysis of constrained symmetry for selective dynamics:
=====================================================================
 Subroutine PRICEL returns:
 Original cell was already a primitive cell.
 

 Routine SETGRP: Setting up the symmetry group for a 
 simple orthorhombic supercell.


 Subroutine GETGRP returns: Found  1 space group operations
 (whereof  1 operations were pure point group operations)
 out of a pool of  8 trial point group operations.


The constrained configuration has the point symmetry C_1 .


 Subroutine INISYM returns: Found  1 space group operations
 (whereof  1 operations are pure point group operations),
 and found     1 'primitive' translations

 
 
 KPOINTS: KPOINTS created by Atomic Simulation Env

Automatic generation of k-mesh.
Space group operators:
 irot       det(A)        alpha          n_x          n_y          n_z        tau_x        tau_y        tau_z
    1     1.000000     0.000000     1.000000     0.000000     0.000000     0.000000     0.000000     0.000000
 
 Subroutine IBZKPT returns following result:
 ===========================================
 
 Found      5 irreducible k-points:
 
 Following reciprocal coordinates:
            Coordinates               Weight
  0.000000  0.000000  0.000000      1.000000
  0.333333  0.000000  0.000000      2.000000
  0.000000  0.333333  0.000000      2.000000
  0.333333  0.333333  0.000000      2.000000
 -0.333333  0.333333  0.000000      2.000000
 
 Following cartesian coordinates:
            Coordinates               Weight
  0.000000  0.000000  0.000000      1.000000
  0.014238  0.000000  0.000000      2.000000
  0.000000  0.018395  0.000000      2.000000
  0.014238  0.018395  0.000000      2.000000
 -0.014238  0.018395  0.000000      2.000000
 


--------------------------------------------------------------------------------------------------------




 Dimension of arrays:
   k-points           NKPTS =      5   k-points in BZ     NKDIM =      5   number of bands    NBANDS=    768
   number of dos      NEDOS =    301   number of ions     NIONS =    270
   non local maximal  LDIM  =      6   non local SUM 2l+1 LMDIM =     18
   total plane-waves  NPLWV = ******
   max r-space proj   IRMAX =   2748   max aug-charges    IRDMAX=   9808
   dimension x,y,z NGX =   128 NGY =  100 NGZ =  150
   dimension x,y,z NGXF=   256 NGYF=  200 NGZF=  300
   support grid    NGXF=   256 NGYF=  200 NGZF=  300
   ions per type =               2  48 154  65   1
   NGX,Y,Z   is equivalent  to a cutoff of   9.09,  9.17,  9.28 a.u.
   NGXF,Y,Z  is equivalent  to a cutoff of  18.18, 18.35, 18.55 a.u.

 SYSTEM =  unknown system                          
 POSCAR =   C  H  O Si  W                          

 Startparameter for this run:
   NWRITE =      2    write-flag & timer
   PREC   = normal    normal or accurate (medium, high low for compatibility)
   ISTART =      1    job   : 0-new  1-cont  2-samecut
   ICHARG =      2    charge: 1-file 2-atom 10-const
   ISPIN  =      1    spin polarized calculation?
   LNONCOLLINEAR =      F non collinear calculations
   LSORBIT =      F    spin-orbit coupling
   INIWAV =      1    electr: 0-lowe 1-rand  2-diag
   LASPH  =      T    aspherical Exc in radial PAW
   METAGGA=      F    non-selfconsistent MetaGGA calc.

 Electronic Relaxation 1
   ENCUT  =  500.0 eV  36.75 Ry    6.06 a.u.  42.68 33.04 49.01*2*pi/ulx,y,z
   ENINI  =  500.0     initial cutoff
   ENAUG  =  644.9 eV  augmentation charge cutoff
   NELM   =     60;   NELMIN=  2; NELMDL=  0     # of ELM steps 
   EDIFF  = 0.1E-03   stopping-criterion for ELM
   LREAL  =      T    real-space projection
   NLSPLINE    = F    spline interpolate recip. space projectors
   LCOMPAT=      F    compatible to vasp.4.4
   GGA_COMPAT  = T    GGA compatible to vasp.4.4-vasp.4.6
   LMAXPAW     = -100 max onsite density
   LMAXMIX     =    2 max onsite mixed and CHGCAR
   VOSKOWN=      0    Vosko Wilk Nusair interpolation
   ROPT   =   -0.00050  -0.00050  -0.00050  -0.00050
   ROPT   =   -0.00050
 Ionic relaxation
   EDIFFG = -.5E-01   stopping-criterion for IOM
   NSW    =    400    number of steps for IOM
   NBLOCK =      1;   KBLOCK =    400    inner block; outer block 
   IBRION =      2    ionic relax: 0-MD 1-quasi-New 2-CG
   NFREE  =      1    steps in history (QN), initial steepest desc. (CG)
   ISIF   =      0    stress and relaxation
   IWAVPR =     11    prediction:  0-non 1-charg 2-wave 3-comb
   ISYM   =      2    0-nonsym 1-usesym 2-fastsym
   LCORR  =      T    Harris-Foulkes like correction to forces

   POTIM  = 0.5000    time-step for ionic-motion
   TEIN   =    0.0    initial temperature
   TEBEG  =    0.0;   TEEND  =   0.0 temperature during run
   SMASS  =  -3.00    Nose mass-parameter (am)
   estimated Nose-frequenzy (Omega)   =  0.10E-29 period in steps =****** mass=  -0.125E-25a.u.
   SCALEE = 1.0000    scale energy and forces
   NPACO  =    256;   APACO  = 16.0  distance and # of slots for P.C.
   PSTRESS=    0.0 pullay stress

  Mass of Ions in am
   POMASS =  12.01  1.00 16.00 28.09183.85
  Ionic Valenz
   ZVAL   =   4.00  1.00  6.00  4.00  6.00
  Atomic Wigner-Seitz radii
   RWIGS  =  -1.00 -1.00 -1.00 -1.00 -1.00
  virtual crystal weights 
   VCA    =   1.00  1.00  1.00  1.00  1.00
   NELECT =    1246.0000    total number of electrons
   NUPDOWN=      -1.0000    fix difference up-down

 DOS related values:
   EMIN   =  10.00;   EMAX   =-10.00  energy-range for DOS
   EFERMI =   0.00
   ISMEAR =     0;   SIGMA  =   0.20  broadening in eV -4-tet -1-fermi 0-gaus

 Electronic relaxation 2 (details)
   IALGO  =     68    algorithm
   LDIAG  =      T    sub-space diagonalisation (order eigenvalues)
   LSUBROT=      F    optimize rotation matrix (better conditioning)
   TURBO    =      0    0=normal 1=particle mesh
   IRESTART =      0    0=no restart 2=restart with 2 vectors
   NREBOOT  =      0    no. of reboots
   NMIN     =      0    reboot dimension
   EREF     =   0.00    reference energy to select bands
   IMIX   =      4    mixing-type and parameters
     AMIX     =   0.40;   BMIX     =  1.00
     AMIX_MAG =   1.60;   BMIX_MAG =  1.00
     AMIN     =   0.10
     WC   =   100.;   INIMIX=   1;  MIXPRE=   1;  MAXMIX= -45

 Intra band minimization:
   WEIMIN = 0.0010     energy-eigenvalue tresh-hold
   EBREAK =  0.33E-07  absolut break condition
   DEPER  =   0.30     relativ break condition  

   TIME   =   0.40     timestep for ELM

  volume/ion in A,a.u.               =      42.24       285.06
  Fermi-wavevector in a.u.,A,eV,Ry     =   0.782616  1.478929  8.333395  0.612487
  Thomas-Fermi vector in A             =   1.886376
 
 Write flags
   LWAVE        =      T    write WAVECAR
   LDOWNSAMPLE  =      F    k-point downsampling of WAVECAR
   LCHARG       =      T    write CHGCAR
   LVTOT        =      F    write LOCPOT, total local potential
   LVHAR        =      F    write LOCPOT, Hartree potential only
   LELF         =      F    write electronic localiz. function (ELF)
   LORBIT       =      0    0 simple, 1 ext, 2 COOP (PROOUT), +10 PAW based schemes


 Dipole corrections
   LMONO  =      F    monopole corrections only (constant potential shift)
   LDIPOL =      T    correct potential (dipole corrections)
   IDIPOL =      3    1-x, 2-y, 3-z, 4-all directions 
   EPSILON=  1.0000000 bulk dielectric constant

 Exchange correlation treatment:
   GGA     =    RP    GGA type
   LEXCH   =     9    internal setting for exchange type
   VOSKOWN=      0    Vosko Wilk Nusair interpolation
   LHFCALC =     F    Hartree Fock is set to
   LHFONE  =     F    Hartree Fock one center treatment
   AEXX    =    0.0000 exact exchange contribution

 Linear response parameters
   LEPSILON=     F    determine dielectric tensor
   LRPA    =     F    only Hartree local field effects (RPA)
   LNABLA  =     F    use nabla operator in PAW spheres
   LVEL    =     F    velocity operator in full k-point grid
   LINTERFAST=   F  fast interpolation
   KINTER  =     0    interpolate to denser k-point grid
   CSHIFT  =0.1000    complex shift for real part using Kramers Kronig
   OMEGAMAX=  -1.0    maximum frequency
   DEG_THRESHOLD= 0.2000000E-02 threshold for treating states as degnerate
   RTIME   =   -0.100 relaxation time in fs
  (WPLASMAI=    0.000 imaginary part of plasma frequency in eV, 0.658/RTIME)
   DFIELD  = 0.0000000 0.0000000 0.0000000 field for delta impulse in time
 
 Orbital magnetization related:
   ORBITALMAG=     F  switch on orbital magnetization
   LCHIMAG   =     F  perturbation theory with respect to B field
   DQ        =  0.001000  dq finite difference perturbation B field
   LLRAUG    =     F  two centre corrections for induced B field



--------------------------------------------------------------------------------------------------------


 conjugate gradient relaxation of ions
   using selective dynamics as specified on POSCAR
 charge density and potential will be updated during run
 non-spin polarized calculation
 RMM-DIIS sequential band-by-band and
  variant of blocked Davidson during initial phase
 perform sub-space diagonalisation
    before iterative eigenvector-optimisation
 modified Broyden-mixing scheme, WC =      100.0
 initial mixing is a Kerker type mixing with AMIX =  0.4000 and BMIX =      1.0000
 Hartree-type preconditioning will be used
 using additional bands           145
 real space projection scheme for non local part
 use partial core corrections
 calculate Harris-corrections to forces 
   (improved forces if not selfconsistent)
 use gradient corrections 
 use of overlap-Matrix (Vanderbilt PP)
 Gauss-broadening in eV      SIGMA  =   0.20


--------------------------------------------------------------------------------------------------------


  energy-cutoff  :      500.00
  volume of cell :    11405.04
      direct lattice vectors                 reciprocal lattice vectors
    23.411294595  0.000000000  0.000000000     0.042714426  0.000000000  0.000000000
     0.000000000 18.121236951  0.000000000     0.000000000  0.055183871  0.000000000
     0.000000000  0.000000000 26.883366507     0.000000000  0.000000000  0.037197722

  length of vectors
    23.411294595 18.121236951 26.883366507     0.042714426  0.055183871  0.037197722


 
 old parameters found on file WAVECAR:
  energy-cutoff  :      500.00
  volume of cell :    11405.04
      direct lattice vectors                 reciprocal lattice vectors
    23.411294595  0.000000000  0.000000000     0.042714426  0.000000000  0.000000000
     0.000000000 18.121236951  0.000000000     0.000000000  0.055183871  0.000000000
     0.000000000  0.000000000 26.883366507     0.000000000  0.000000000  0.037197722

  length of vectors

 
 k-points in units of 2pi/SCALE and weight: KPOINTS created by Atomic Simulation Env
   0.00000000  0.00000000  0.00000000       0.111
   0.01423814  0.00000000  0.00000000       0.222
   0.00000000  0.01839462  0.00000000       0.222
   0.01423814  0.01839462  0.00000000       0.222
  -0.01423814  0.01839462  0.00000000       0.222
 
 k-points in reciprocal lattice and weights: KPOINTS created by Atomic Simulation Env
   0.00000000  0.00000000  0.00000000       0.111
   0.33333333  0.00000000  0.00000000       0.222
   0.00000000  0.33333333  0.00000000       0.222
   0.33333333  0.33333333  0.00000000       0.222
  -0.33333333  0.33333333  0.00000000       0.222
 
 position of ions in fractional coordinates (direct lattice) 
   0.56714152  0.50069257  0.72251597
   0.59866777  0.45794623  0.76191891
   0.76077630  0.10359499  0.65105953
   0.92642768  0.27866896  0.35633493
   0.79333970  0.20727890  0.37345652
   0.97453911  0.94360860  0.32530279
   0.62573266  0.96347285  0.37523120
   0.82053840  0.99500666  0.36899263
   0.74999307  0.14117876  0.45803819
   0.91549031  0.24946902  0.50896646
   0.58349286  0.30426355  0.30592717
   0.89146193  0.33475385  0.61582884
   0.58740166  0.35911732  0.61499244
   0.59334409  0.87089663  0.57803422
   0.03360505  0.33760685  0.65236527
   0.93527051  0.41951423  0.45410146
   0.74613838  0.53031199  0.42248819
   0.79816369  0.38247794  0.63495760
   0.59110202  0.56868283  0.37803474
   0.71843379  0.64593279  0.38346059
   0.84115291  0.54242660  0.41959617
   0.00476455  0.60379815  0.35777830
   0.82835870  0.71235667  0.46794226
   0.87649353  0.59870752  0.72160633
   0.51999031  0.98556476  0.42170307
   0.22309457  0.98015484  0.39320502
   0.21637369  0.23785146  0.31923033
   0.15750105  0.32980623  0.27898292
   0.34154688  0.15558571  0.33077276
   0.22271586  0.04575893  0.32273843
   0.51104546  0.82638480  0.54672319
   0.37736746  0.24190779  0.64753296
   0.24360362  0.09369336  0.59885733
   0.31538097  0.48713646  0.44243467
   0.40895618  0.43873486  0.40569060
   0.39849950  0.79311361  0.38878680
   0.24420236  0.65543008  0.29432688
   0.31174138  0.41847571  0.36925764
   0.40547429  0.58427965  0.33881989
   0.13935762  0.48797365  0.35192946
   0.59326935  0.69798713  0.35239799
   0.46900683  0.86142747  0.44382838
   0.12173724  0.32454469  0.61191526
   0.07168012  0.66579576  0.64541980
   0.24179368  0.38639948  0.68251803
   0.24576363  0.81547438  0.66969298
   0.60849859  0.49259234  0.79457059
   0.59165020  0.54626545  0.70510521
   0.57424328  0.40955576  0.77427432
   0.64000869  0.43878053  0.74679159
   0.36894173  0.64835510  0.43900002
   0.34681565  0.50403387  0.42038813
   0.86075267  0.56599462  0.69663139
   0.34834382  0.95872452  0.53058432
   0.03344410  0.93255619  0.52853091
   0.63635548  0.07886855  0.48937667
   0.06864615  0.05226542  0.39511073
   0.45189954  0.12956232  0.42059728
   0.80588415  0.21365018  0.48316661
   0.97312239  0.18154249  0.59877066
   0.27476529  0.29917287  0.44851223
   0.55635417  0.77509129  0.44175101
   0.39135119  0.97290635  0.61957446
   0.17751724  0.34996845  0.40527312
   0.86650766  0.68415515  0.63733058
   0.86569601  0.96717693  0.46703846
   0.30104714  0.76093683  0.45792526
   0.42161095  0.26125222  0.37959630
   0.81125255  0.46527484  0.52014914
   0.98359786  0.07277765  0.52124484
   0.51688342  0.45617958  0.62506349
   0.03453641  0.91994776  0.42940526
   0.96303654  0.30319531  0.35125762
   0.06962669  0.33610577  0.37637178
   0.20829566  0.72864429  0.39536010
   0.03890126  0.41910192  0.49910875
   0.23916967  0.28644244  0.58751001
   0.39752261  0.19533709  0.64476689
   0.45540434  0.56098479  0.58339559
   0.90978809  0.74918435  0.55751294
   0.86912727  0.10804334  0.44227833
   0.57257679  0.66733185  0.37613173
   0.14242656  0.15912550  0.37597224
   0.35021380  0.76610196  0.60667915
   0.91099605  0.84504757  0.48317962
   0.06133801  0.53687171  0.44225348
   0.70833903  0.55516655  0.41995768
   0.07548726  0.81680680  0.48299416
   0.70046477  0.82755571  0.43263529
   0.73021114  0.04902360  0.54296721
   0.91894462  0.30213947  0.63195970
   0.73506973  0.85318817  0.61293391
   0.62512195  0.52739400  0.48637871
   0.55657330  0.62970304  0.46724942
   0.42509990  0.24716679  0.55528416
   0.97829009  0.72824363  0.47679564
   0.65430884  0.59438334  0.63344918
   0.39715538  0.74642229  0.51540229
   0.60269007  0.51766545  0.38567099
   0.71950865  0.63146557  0.55700744
   0.14681812  0.36570751  0.61976275
   0.06616181  0.54849931  0.54196325
   0.81889494  0.88471323  0.53666559
   0.82821553  0.35538514  0.45190334
   0.52729840  0.29854990  0.53261174
   0.73687411  0.49932445  0.59526120
   0.55743394  0.17243111  0.39490854
   0.80596408  0.25641257  0.38329286
   0.23744622  0.95325075  0.50791956
   0.69292725  0.77657816  0.54133874
   0.92388951  0.94979728  0.55293925
   0.52573722  0.31778112  0.39855594
   0.46801221  0.99007709  0.54623677
   0.83778808  0.09482095  0.53982267
   0.53790325  0.11641749  0.48623709
   0.35019344  0.18660873  0.43963639
   0.01176032  0.96241390  0.33524376
   0.45933474  0.58925968  0.67746348
   0.65496522  0.92539750  0.37922825
   0.07629334  0.68602626  0.43588102
   0.45172459  0.40448058  0.55223306
   0.71921944  0.70042085  0.37958300
   0.44969389  0.70299651  0.60123868
   0.75255106  0.70932458  0.47629548
   0.77854360  0.12114833  0.62072876
   0.99327462  0.30801347  0.44840298
   0.53219415  0.50810437  0.52942112
   0.81677759  0.49906173  0.42344221
   0.23566368  0.14570132  0.60549408
   0.20353331  0.83070132  0.47053363
   0.24002863  0.55903563  0.52280406
   0.06107687  0.62540689  0.62369427
   0.04607407  0.60234669  0.35417863
   0.80079629  0.97882104  0.60586739
   0.53799091  0.02769749  0.40450275
   0.60629335  0.31370746  0.60490968
   0.86154611  0.00408085  0.36920633
   0.09491131  0.14902284  0.46708233
   0.17149328  0.20386455  0.53062224
   0.64098865  0.70443872  0.45481558
   0.43678778  0.40976848  0.38641325
   0.57372665  0.05866991  0.57103953
   0.15143775  0.59340802  0.38895836
   0.26773979  0.60233753  0.39230630
   0.44025846  0.32219818  0.47032443
   0.23800967  0.15851113  0.42990119
   0.07277984  0.15032162  0.56259748
   0.84501922  0.54416878  0.59971452
   0.62117943  0.27993988  0.41090545
   0.60266699  0.89152667  0.46722346
   0.03138539  0.19528983  0.38899188
   0.60763837  0.19557944  0.54740204
   0.13279973  0.93835464  0.47948708
   0.08026531  0.28039356  0.51158891
   0.37221954  0.10505731  0.56845646
   0.06668926  0.69698552  0.53571399
   0.66648838  0.41538488  0.43001156
   0.79939789  0.72964938  0.56413114
   0.70383856  0.95720843  0.47018456
   0.59732202  0.63263785  0.55337736
   0.72284030  0.29368465  0.45166811
   0.97756184  0.31416391  0.54720546
   0.15830441  0.62977590  0.57065940
   0.63333384  0.32678308  0.50780070
   0.81961854  0.39628711  0.60550825
   0.95857820  0.02724304  0.41695300
   0.28202950  0.19513129  0.51865712
   0.24925755  0.44303289  0.46105570
   0.27187392  0.85034293  0.56918000
   0.20366815  0.68557317  0.48688872
   0.14712345  0.47606988  0.49254493
   0.22507339  0.42330669  0.55680965
   0.91141698  0.45274460  0.47371881
   0.86978818  0.70456011  0.46415352
   0.73812021  0.09283462  0.44522965
   0.22218344  0.92978119  0.40794682
   0.25226854  0.40227044  0.64933044
   0.63046215  0.88340633  0.59336851
   0.41022327  0.78906239  0.42343739
   0.91777135  0.19603829  0.50824515
   0.13254706  0.44353611  0.33227266
   0.15514768  0.30352326  0.31056042
   0.37300515  0.13090704  0.34795342
   0.03460746  0.29194945  0.63343742
   0.57268926  0.25686819  0.32009968
   0.24518223  0.77038838  0.65023455
   0.20737430  0.64840505  0.31036906
   0.27537441  0.39219130  0.36737583
   0.36535081  0.59758663  0.34222079
   0.22638085  0.05618082  0.35811888
   0.24120333  0.19607823  0.32934297
   0.50127293  0.89230162  0.45484168
   0.55002885  0.82781994  0.53435892
   0.54543922  0.64704269  0.63471294
   0.47798512  0.12203001  0.59627548
   0.26231650  0.69474619  0.56856930
   0.44274000  0.84674813  0.58186570
   0.76563441  0.61681883  0.64940531
   0.84481080  0.83177453  0.62301981
   0.64012094  0.73963966  0.62062579
   0.00816100  0.03345845  0.60299559
   0.28402982  0.00285475  0.59357296
   0.50290924  0.97200344  0.62866670
   0.45854370  0.42854505  0.72556538
   0.08322528  0.60642030  0.40641308
   0.40909094  0.76511452  0.57493293
   0.84176382  0.44145312  0.46783897
   0.01708949  0.99048204  0.39361135
   0.01470021  0.28419027  0.39108141
   0.00929345  0.11505771  0.57252030
   0.60968536  0.65767505  0.61066445
   0.21403711  0.47614547  0.50966754
   0.91506213  0.75556094  0.49625454
   0.52057854  0.11045563  0.42598659
   0.41830063  0.16976401  0.58916355
   0.08345253  0.13917208  0.40698087
   0.70189793  0.04484625  0.48732303
   0.66505935  0.89803746  0.43747644
   0.65009874  0.50402706  0.43015089
   0.19846065  0.91248223  0.46399069
   0.21442399  0.36723764  0.60349520
   0.67369473  0.81386405  0.59448170
   0.21664623  0.64175635  0.53857298
   0.36878912  0.73512773  0.45920930
   0.79750313  0.88863955  0.59567364
   0.87984515  0.91231455  0.51196361
   0.57595289  0.57409014  0.51159796
   0.58983684  0.11560065  0.52524720
   0.85812234  0.15211323  0.49517595
   0.83552273  0.60362246  0.64583163
   0.13373852  0.36031890  0.35687228
   0.79065529  0.27993925  0.44187265
   0.39917610  0.17749484  0.39600320
   0.85602056  0.75014527  0.59655340
   0.28261469  0.93503961  0.54987075
   0.02307473  0.33044751  0.50224551
   0.57455938  0.69549008  0.43556436
   0.23024095  0.75260050  0.45196954
   0.59368168  0.28424653  0.54834297
   0.97519898  0.27229342  0.60261435
   0.88890636  0.02540900  0.42420019
   0.10473452  0.19546720  0.51772460
   0.04814566  0.73303709  0.48263019
   0.23187144  0.20606930  0.56096536
   0.56140781  0.25778527  0.38122611
   0.47720015  0.62669487  0.62317166
   0.28105896  0.77081698  0.59793327
   0.20850083  0.64339984  0.37179454
   0.74044071  0.71100502  0.53580123
   0.98659083  0.99065538  0.55036703
   0.70310456  0.73681815  0.43426040
   0.78793583  0.05952057  0.57677654
   0.45631390  0.32845159  0.40928789
   0.44916234  0.93593348  0.59460761
   0.50814365  0.04098182  0.58603876
   0.24424715  0.37040632  0.42094710
   0.65852534  0.33000211  0.45034791
   0.46002200  0.31802538  0.52885975
   0.33729937  0.58994254  0.39908301
   0.80329979  0.47642759  0.57970238
   0.06920979  0.89885916  0.48050551
   0.21190758  0.14445432  0.37359659
   0.07823286  0.49398499  0.49468762
   0.55757019  0.85234010  0.47473025
   0.71851634  0.58478455  0.60945480
   0.28664212  0.21010174  0.45911077
   0.08808636  0.62543464  0.56763526
   0.35307190  0.01959488  0.57826400
   0.48684292  0.47947990  0.57150969
   0.49470814  0.49331126  0.69094163
 
 position of ions in cartesian coordinates  (Angst):
  13.27751728  9.07316876 19.42366164
  14.01558746  8.29855206 20.48294544
  17.81075809  1.87726937 17.50267192
  21.68887124  5.04982630  9.57948250
  18.57310935  3.75615001 10.03976840
  22.81522226 17.09935504  8.74523415
  14.64921175 17.45931981 10.08747787
  19.20986618 18.03075152  9.91976410
  17.55830880  2.55833368 12.31360861
  21.43281325  4.52068717 13.68273178
  13.66032332  5.51363181  8.22435231
  20.87027794  6.06615383 16.55555239
  13.75183342  6.50765000 16.53306719
  13.89095331 15.78172415 15.53950581
   0.78673783  6.11785379 17.53777469
  21.89589338  7.60211669 12.20777585
  17.46806539  9.60990927 11.35790489
  18.68604523  6.93097341 17.06979791
  13.83846346 10.30523625 10.16284657
  16.81946503 11.70510106 10.30871170
  19.69247867  9.82944087 11.28015755
   0.11154425 10.94156933  9.61828518
  19.39294954 12.90878407 12.57986315
  20.51984821 10.84932089 19.39920735
  12.17364643 17.85965257 11.33679820
   5.22293275 17.76161801 10.57067472
   5.06558822  4.31016263  8.58198589
   3.68730349  5.97649684  7.50000000
   7.99605454  2.81940543  8.89228530
   5.21406665  0.82920834  8.67629559
  11.96423573 14.97511474 14.69775993
   8.83466070  4.38366842 17.40786582
   5.70307600  1.69783953 16.09930101
   7.38347683  8.82751530 11.89413327
   9.57419369  7.95041833 10.90632902
   9.32938926 14.37219961 10.45189795
   5.71709332 11.87720376  7.91249741
   7.29826932  7.58329756  9.92688859
   9.49267817 10.58787004  9.10861924
   3.26254231  8.84268607  9.46104865
  13.88920341 12.64839014  9.47364424
  10.98005707 15.61013128 11.93160111
   2.85002633  5.88115119 16.45034223
   1.67812450 12.06504281 17.35105698
   5.66070300  7.00203649 18.34838233
   5.75364469 14.77740449 18.00360184
  14.24573978  8.92638250 21.36073239
  13.85129716  9.89900570 18.95560166
  13.44377863  7.42165690 20.81510021
  14.98343191  7.95124596 20.07627205
   8.63740362 11.74899635 11.80179838
   8.11940335  9.13371715 11.30144811
  20.15133445 10.25652269 18.72779706
   8.15517976 17.37327429 14.26389267
   0.78296963 16.89907173 14.20869010
  14.89790566  1.42919560 13.15609244
   1.60709516  0.94711408 10.62190669
  10.57955331  2.34782959 11.30707087
  18.86679123  3.87160553 12.98914499
  22.78205485  3.28977443 16.09697123
   6.43261122  5.42138248 12.05751853
  13.02497128 14.04561294 11.87575437
   9.16203797 17.63026648 16.65624742
   4.15590840  6.34186119 10.89510594
  20.28606606 12.39773751 17.13359167
  20.26706432 17.52644236 12.55556607
   7.04790320 13.78911669 12.31057251
   9.87045805  4.73421333 10.20482654
  18.99247239  8.43135571 13.98335996
  23.02729920  1.31882104 14.01281603
  12.10091007  8.26653830 16.80381103
   0.80854198 16.67059137 11.54385891
  22.54593219  5.49427402  9.44298747
   1.63005096  6.09065222 10.11814055
   4.87647100 13.20393591 10.62861051
   0.91072893  7.59464512 13.41772355
   5.59927160  5.19069127 15.79424697
   9.30651888  3.53974970 17.33350466
  10.66160513 10.16573831 15.68363757
  21.29931705 13.57614716 14.98782457
  20.34739459  1.95787901 11.88993046
  13.40476402 12.09287863 10.11168720
   3.33439013  2.88355087 10.10739962
   8.19895853 13.88271519 16.30957790
  21.32759690 15.31330727 12.98949491
   1.43600223  9.72877939 11.88926245
  16.58313365 10.06030463 11.28987623
   1.76725442 14.80154965 12.98450890
  16.39878711 14.99633320 11.63069310
  17.09518802  0.88836823 14.59678659
  21.51368328  5.47514092 16.98920422
  17.20893391 15.46082496 16.47772691
  14.63491423  9.55703168 13.07549710
  13.03010146 11.41099800 12.56123752
   9.95213902  4.47896804 14.92790749
  22.90303759 13.19667544 12.81787194
  15.31821707 10.77096126 17.02924636
   9.29792150 13.52609524 13.85574863
  14.10975474  9.38073831 10.36813464
  16.84462898 11.44293730 14.97423526
   3.43720228  6.62707240 16.66130905
   1.54893361  9.93948603 14.56979681
  19.17139065 16.03209799 14.42737769
  19.38959778  6.44001838 12.14868300
  12.34473811  5.41009344 14.31839675
  17.25117677  9.04837666 16.00262497
  13.05025009  3.12466491 10.61647095
  18.86866258  4.64651294 10.30420244
   5.55892333 17.27408272 13.65458756
  16.22232393 14.07255682 14.55300782
  21.62944950 17.21150156 14.86486843
  12.30818899  5.75858696 10.71452528
  10.95677168 17.94142150 14.68468333
  19.61370351  1.71827298 14.51225076
  12.59301152  2.10962891 13.07168996
   8.19848185  3.38158105 11.81890631
   0.27532438 17.44013032  9.01248080
  10.75362087 10.67811433 18.21249911
  15.33358375 16.76934745 10.19493214
   1.78612593 12.43164436 11.71794928
  10.57545734  7.32968842 14.84588376
  16.83785811 12.69249221 10.20446890
  10.52791618 12.73916630 16.16331967
  17.61819454 12.85383870 12.80442605
  18.22671355  2.19535760 16.68727885
  23.25384464  5.58158513 12.05458163
  12.45935408  9.20747972 14.23262210
  19.12182067  9.04361594 11.38355200
   5.51719192  2.64028808 16.27771925
   4.76497818 15.05333538 12.64952801
   5.61938096 10.13041716 14.05473325
   1.42988854 11.33314648 16.76700168
   1.07865368 10.91526713  9.52151395
  18.74767782 17.73744804 16.28775521
  12.59506368  0.50191281 10.87439573
  14.19411228  5.68476717 16.26200861
  20.16990973  0.07395004  9.92550906
   2.22199659  2.70047811 12.55674536
   4.01487965  3.69427783 14.26491227
  15.00637423 12.76530096 12.22697399
  10.22576747  7.42551173 10.38808912
  13.43168359  1.06317133 15.35146485
   3.54535369 10.75328740 10.45651017
   6.26813510 10.91510113 10.54651395
  10.30702050  5.83862960 12.64390410
   5.57211440  2.87241773 11.55719116
   1.70387037  2.72401374 15.12451429
  19.78299388  9.86101139 16.12234525
  14.54261459  5.07285683 11.04652184
  14.10921452 16.15556596 12.56053950
   0.73477264  3.53889327 10.45741115
  14.22560077  3.54414129 14.71600971
   3.10901351 17.00414686 12.89022683
   1.87911483  5.08107808 13.75323215
   8.71414134  1.90376833 15.28202324
   1.56128203 12.63023967 14.40179550
  15.60335581  7.52728779 11.56015827
  18.71493950 13.22214938 15.16574408
  16.47777184 17.34580083 12.64014391
  13.98408182 11.46418044 14.87664644
  16.92262720  5.32192920 12.14235921
  22.88598832  5.69303859 14.71072490
   3.70611123 11.41231832 15.34124569
  14.82716522  5.92171361 13.65139239
  19.18833108  7.18121267 16.27810017
  22.44155659  0.49367766 11.20910044
   6.60267572  3.53602036 13.94324955
   5.83544193  8.02830396 12.39472924
   6.36492042 15.40926572 15.30147451
   4.76813504 12.42343385 13.08920785
   3.44435051  8.62697504 13.24126574
   5.26925933  7.67084080 14.96891791
  21.33745138  8.20429214 12.73515651
  20.36286723 12.76750071 12.47800922
  17.28034963  1.68227812 11.96927179
   5.20160188 16.84878525 10.96698378
   5.90593302  7.28963792 17.45618830
  14.75993520 16.00841535 15.95174325
   9.60385771 14.29878657 11.38342242
  21.48621551  3.55245637 13.66334053
   3.10309823  8.03742301  8.93260776
   3.63220806  5.50021683  8.34890949
   8.73253334  2.37219755  9.35415932
   0.81020545  5.29048525 17.02893020
  13.40739699  4.65476936  8.60535697
   5.74003343 13.96039034 17.48049375
   4.85490080 11.74990154  8.34376522
   6.44687148  7.10699146  9.87629901
   8.55333550 10.82900896  9.20004704
   5.29986877  1.01806602  9.62744117
   5.64688233  3.55318002  8.85384768
  11.73544815 16.16960912 12.22767567
  12.87688747 15.00112121 14.36536659
  12.76943835 11.72521389 17.06322056
  11.19025049  2.21133470 16.02989229
   6.14116882 12.58966030 15.28505690
  10.36511655 15.34412342 15.64250875
  17.92449264 11.17752013 17.45820108
  19.77811451 15.07278343 16.74886988
  14.98605998 13.40318556 16.68451070
   0.19105956  0.60630853 16.21055151
   6.64950575  0.05173167 15.95723930
  11.77375636 17.61390461 16.90067740
  10.73510172  7.76576632 19.50564004
   1.94841153 10.98908596 10.92575188
   9.57734858 13.86482144 15.45613270
  19.70678074  7.99967650 12.57708649
   0.40008717 17.94875972 10.58159830
   0.34415087  5.14987929 10.51358498
   0.21757160  2.08498802 15.39127310
  14.27352360 11.91788538 16.41671622
   5.01088592  8.62834490 13.70157914
  21.42278905 13.69169878 13.34099278
  12.18741762  2.00159257 11.45195358
   9.79295934  3.07633386 15.83869956
   1.95373172  2.52197018 10.94101594
  16.43233932  0.81266960 13.10088356
  15.56990047 16.27354966 11.76083937
  15.21965321  9.13359373 11.56390395
   4.64622068 16.53530673 12.47363180
   5.01994329  6.65480038 16.22398267
  15.77206576 14.74822332 15.98166956
   5.07196875 11.62941890 14.47865477
   8.63383069 13.32142384 12.34509184
  18.67058080 16.10324778 16.01371281
  20.59831390 16.53226822 13.76330531
  13.48380272 10.40322342 13.75347548
  13.80884398  2.09482670 14.12041289
  20.08975493  2.75647992 13.31199648
  19.56066867 10.93838554 17.36212848
   3.13099191  6.52942423  9.59392828
  18.51026388  5.07284540 11.87902451
   9.34522920  3.21642612 10.64589911
  20.04054951 13.59356011 16.03736375
   6.61637576 16.94407429 14.78237700
   0.54020935  5.98811771 13.50205012
  13.45117902 12.60314055 11.70943634
   5.39023881 13.63805192 12.15046292
  13.89885680  5.15089872 14.74130511
  22.83067061  4.93429354 16.20030250
  20.81044864  0.46044249 11.40392910
   2.45197077  3.54210748 13.91818004
   1.12715225 13.28353886 12.97472440
   5.42841059  3.73423064 15.08063733
  13.14328356  4.67138795 10.24864117
  11.17187338 11.35648632 16.75295210
   6.57995419 13.96815717 16.07445925
   4.88127424 11.65920103  9.99508876
  17.33467549 12.88429047 14.40414093
  23.09736862 17.95190080 14.79571848
  16.46058793 13.35205634 11.67438144
  18.44659777  1.07858631 15.50569505
  10.68289909  5.95194918 11.00303640
  10.51547179 16.96027229 15.98505431
  11.89630064  0.74264122 15.75469470
   5.71814202  6.71222076 11.31647527
  15.41693082  5.98004644 12.10686792
  10.76971056  5.76301327 14.21753057
   7.89661487 10.69048858 10.72869482
  18.80628800  8.63345719 15.58435146
   1.62029077 16.28843974 12.91760565
   4.96103075  2.61769098 10.04353415
   1.83153245  8.95161914 13.29886860
  13.05343995 15.44545689 12.76234739
  16.82139769 10.59701940 16.38419670
   6.71066321  3.80730338 12.34244318
   2.06221572 11.33364933 15.25994663
   8.26587023  0.35508337 15.54568308
  11.39762311  8.68876895 15.36410453
  11.58175794  8.93941025 18.57483720
 


--------------------------------------------------------------------------------------------------------


 k-point  1 :   0.0000 0.0000 0.0000  plane waves:  289505
 k-point  2 :   0.3333 0.0000 0.0000  plane waves:  289422
 k-point  3 :   0.0000 0.3333 0.0000  plane waves:  289550
 k-point  4 :   0.3333 0.3333 0.0000  plane waves:  289551
 k-point  5 :  -0.3333 0.3333 0.0000  plane waves:  289551

 maximum and minimum number of plane-waves per node :     72451    72309

 maximum number of plane-waves:    289551
 maximum index in each direction: 
   IXMAX=   43   IYMAX=   33   IZMAX=   49
   IXMIN=  -43   IYMIN=  -33   IZMIN=  -49


 real space projection operators:
  total allocation   :      13529.91 KBytes
  max/ min on nodes  :       3386.79       3378.77


 parallel 3D FFT for wavefunctions:
    minimum data exchange during FFTs selected (reduces bandwidth)
 parallel 3D FFT for charge:
    minimum data exchange during FFTs selected (reduces bandwidth)


 total amount of memory used by VASP MPI-rank0   158799. kBytes
=======================================================================

   base      :      30000. kBytes
   nonlr-proj:      16574. kBytes
   fftplans  :      16927. kBytes
   grid      :      24077. kBytes
   one-center:       1057. kBytes
   wavefun   :      70164. kBytes
 
     INWAV:  cpu time   70.3740: real time   80.0756
 Broyden mixing: mesh for mixing (old mesh)
   NGX = 85   NGY = 67   NGZ = 99
  (NGX  =256   NGY  =200   NGZ  =300)
  gives a total of 563805 points

 initial charge density was supplied:
 charge density of overlapping atoms calculated
 number of electron    1246.0000000 magnetization 
 keeping initial charge density in first step


--------------------------------------------------------------------------------------------------------


 Maximum index for non-local projection operator           648
 Maximum index for augmentation-charges           359 (set IRDMAX)


--------------------------------------------------------------------------------------------------------


 First call to EWALD:  gamma=   0.079
 Maximum number of real-space cells 3x 3x 2
 Maximum number of reciprocal cells 3x 2x 3

    FEWALD:  cpu time    0.0140: real time    0.0140


--------------------------------------- Iteration      1(   1)  ---------------------------------------


    POTLOK:  cpu time    0.1518: real time    0.1683
    SETDIJ:  cpu time    0.1433: real time    0.1441
     EDDAV:  cpu time   45.2997: real time   45.3110
       DOS:  cpu time    0.0088: real time    0.0092
    CHARGE:  cpu time    1.7964: real time    1.7977
    MIXING:  cpu time    0.0033: real time    0.0039
    --------------------------------------------
      LOOP:  cpu time   47.4033: real time   47.4342

 eigenvalue-minimisations  :  9280
 total energy-change (2. order) :-0.2077106E+04  (-0.1315695E+03)
 number of electron    1246.0000294 magnetization 
 augmentation part      115.8751081 magnetization 

 DIPCOR: dipole corrections for dipol
 direction  3 min pos    58,
 dipolmoment           0.000000      0.000000      0.068440 electrons x Angstroem
 Tr[quadrupol]    -93361.084253

 energy correction for charged system         0.000000 eV
 dipol+quadrupol energy correction           -0.000038 eV
 added-field ion interaction          7.028271 eV  (added to PSCEN)


 Broyden mixing:
  rms(total) = 0.12563E+02    rms(broyden)= 0.12560E+02
  rms(prec ) = 0.12930E+02
  weight for this iteration     100.00

 Free energy of the ion-electron system (eV)
  ---------------------------------------------------
  alpha Z        PSCENC =       486.96368021
  Ewald energy   TEWEN  =    309600.73369587
  -Hartree energ DENC   =   -371538.67141774
  -exchange      EXHF   =         0.00000000
  -V(xc)+E(xc)   XCENC  =      3742.63423760
  PAW double counting   =     59729.87451082   -58746.54997561
  entropy T*S    EENTRO =        -0.00000000
  eigenvalues    EBANDS =    -19714.66249805
  atomic energy  EATOM  =     74362.57199611
  Solvation  Ediel_sol  =         0.00000000
  ---------------------------------------------------
  free energy    TOTEN  =     -2077.10577078 eV

  energy without entropy =    -2077.10577078  energy(sigma->0) =    -2077.10577078


--------------------------------------------------------------------------------------------------------




--------------------------------------- Iteration      1(   2)  ---------------------------------------


    POTLOK:  cpu time    0.0790: real time    0.0792
    SETDIJ:  cpu time    0.1402: real time    0.1403
    EDDIAG:  cpu time    8.3427: real time    8.3459
  RMM-DIIS:  cpu time   16.1520: real time   16.1543
    ORTHCH:  cpu time    2.6675: real time    2.6678
       DOS:  cpu time    0.0012: real time    0.0012
    CHARGE:  cpu time    1.7713: real time    1.7714
    MIXING:  cpu time    0.0020: real time    0.0020
    --------------------------------------------
      LOOP:  cpu time   29.1559: real time   29.1621

 eigenvalue-minimisations  :  7680
 total energy-change (2. order) : 0.2429685E+03  (-0.1119486E+03)
 number of electron    1246.0000249 magnetization 
 augmentation part       95.4676364 magnetization 

 DIPCOR: dipole corrections for dipol
 direction  3 min pos    58,
 dipolmoment           0.000000      0.000000      0.198820 electrons x Angstroem
 Tr[quadrupol]    -93367.107170

 energy correction for charged system         0.000000 eV
 dipol+quadrupol energy correction           -0.000321 eV
 added-field ion interaction         20.417467 eV  (added to PSCEN)


 Broyden mixing:
  rms(total) = 0.54375E+01    rms(broyden)= 0.54357E+01
  rms(prec ) = 0.54936E+01
  weight for this iteration     100.00

 eigenvalues of (default mixing * dielectric matrix)
  average eigenvalue GAMMA=   1.1564
  1.1564

 Free energy of the ion-electron system (eV)
  ---------------------------------------------------
  alpha Z        PSCENC =       500.35259320
  Ewald energy   TEWEN  =    309600.73369587
  -Hartree energ DENC   =   -374521.46075743
  -exchange      EXHF   =         0.00000000
  -V(xc)+E(xc)   XCENC  =      3923.59154579
  PAW double counting   =     98363.89814883   -97428.17378209
  entropy T*S    EENTRO =        -0.00000000
[...]
      9.16224     17.63035     16.65600         0.013758      0.010494     -0.020681
      4.15591      6.34186     10.89511         0.166927      0.267343     -0.092845
     20.28604     12.39754     17.13363         0.004671      0.007636     -0.006448
     20.26706     17.52644     12.55557        -0.053949      1.271211     -0.957389
      7.04790     13.78912     12.31057        -0.290421     -0.085203     -0.076122
      9.87046      4.73421     10.20483         0.409100      0.017001      0.518988
     18.99247      8.43145     13.98284        -0.017890      0.003383      0.006258
     23.02722      1.31875     14.01270         0.001942      0.009882      0.001179
     12.10112      8.26654     16.80379         0.010218     -0.000960     -0.004923
      0.80854     16.67059     11.54386        -0.108886      0.438239     -0.279002
     22.54593      5.49427      9.44299         0.186875     -0.187022      0.421246
      1.63005      6.09065     10.11814         0.287997     -0.136258     -0.020370
      4.87647     13.20394     10.62861         0.425950     -0.159568      0.435958
      0.91073      7.59465     13.41772         0.446607      0.041921      0.182082
      5.59920      5.19037     15.79409        -0.002687      0.013908      0.009132
      9.30622      3.53987     17.33358        -0.003281     -0.016064     -0.012569
     10.66176     10.16564     15.68378         0.009428     -0.000495      0.012299
     21.29938     13.57606     14.98769         0.006998      0.000329     -0.000494
     20.34739      1.95788     11.88993        -0.089858     -0.043483      0.443261
     13.40476     12.09288     10.11169        -0.258739      0.193419      0.105632
      3.33439      2.88355     10.10740        -0.038405     -0.060325      0.199290
      8.19967     13.88244     16.30935        -0.001880     -0.005241      0.003823
     21.32760     15.31331     12.98949         0.320889     -1.488645      0.200413
      1.43600      9.72878     11.88926         0.543707      0.265440      0.072378
     16.58313     10.06030     11.28988        -0.115043     -0.552591     -0.033493
      1.76725     14.80155     12.98451        -0.029145     -6.363620      0.312467
     16.39879     14.99633     11.63069         1.821177     -3.823753     -0.204708
     17.09541      0.88844     14.59721        -0.001361      0.000726      0.014127
     21.51382      5.47521     16.98946        -0.001662      0.000739     -0.002669
     17.20866     15.46059     16.47760        -0.003464     -0.002615      0.001297
     14.63491      9.55703     13.07550         1.923905     -1.241912     -1.186007
     13.03010     11.41100     12.56124        -3.570460     -2.653471      1.616276
      9.95242      4.47922     14.92805         0.008829     -0.005243      0.022373
     22.90304     13.19668     12.81787         0.408960      0.295978      0.251353
     15.31835     10.77098     17.02926         0.001607      0.003814      0.000989
      9.29787     13.52597     13.85568        -0.004521     -0.009081     -0.002275
     14.10975      9.38074     10.36813         0.278321     -0.118738      0.374635
     16.84464     11.44257     14.97475         0.004704      0.007527      0.002084
      3.43735      6.62701     16.66141        -0.013555      0.000379      0.002724
      1.54891      9.93935     14.56956         0.002638      0.006456     -0.007347
     19.17175     16.03208     14.42719         0.003674     -0.009039      0.012712
     19.38960      6.44002     12.14868        -0.131976      0.249371      0.200573
     12.34433      5.41043     14.31835         0.004358      0.019855      0.001594
     17.25140      9.04848     16.00276         0.015487      0.006084      0.011203
     13.05025      3.12466     10.61647        -1.375975     -1.825887      0.528167
     18.86866      4.64651     10.30420        -0.041132     -0.026112      0.765639
      5.55892     17.27408     13.65459        -0.869701      0.204692     -0.995565
     16.22234     14.07266     14.55284         0.000641      0.006655     -0.000254
     21.62953     17.21140     14.86492        -0.002747     -0.007393     -0.001509
     12.30819      5.75859     10.71453        -7.870312      6.652583      3.193346
     10.95709     17.94161     14.68436         0.016976      0.006895     -0.017356
     19.61370      1.71828     14.51197        -0.008840     -0.007557      0.003827
     12.59301      2.10963     13.07169        -2.094870      0.607419     -1.071604
      8.19848      3.38158     11.81891        -0.115882      0.160796      0.043461
      0.27532     17.44013      9.01248        -0.251333      0.115066      0.333739
     10.75350     10.67796     18.21243        -0.014460      0.000638     -0.008517
     15.33358     16.76935     10.19493        -0.563091      0.121835      0.634333
      1.78613     12.43164     11.71795         0.013370     -0.124056      0.118547
     10.57524      7.32955     14.84599        -0.012974     -0.002462      0.009489
     16.83786     12.69249     10.20447        -0.049889      0.281090      0.498350
     10.52791     12.73923     16.16318         0.003233      0.001662     -0.008755
     17.61819     12.85384     12.80443        -0.359250      0.242289     -1.091926
     18.22679      2.19522     16.68715         0.001388     -0.014902      0.001120
     23.25384      5.58159     12.05458         0.240856      0.006111     -0.006875
     12.45921      9.20750     14.23260        -0.002803      0.010261     -0.010035
     19.12182      9.04362     11.38355         0.337380     -0.393444      0.443392
      5.51718      2.64077     16.27770         0.013383     -0.026571     -0.007037
      4.76498     15.05334     12.64953         0.597360     -6.690794      0.326651
      5.61929     10.12993     14.05467        -0.002354      0.016514      0.006480
      1.42976     11.33302     16.76707         0.002625     -0.000097     -0.000297
      1.07865     10.91527      9.52151         0.188658      0.221139      0.445853
     18.74769     17.73764     16.28791         0.002068     -0.000402      0.013950
     12.59506      0.50191     10.87440        -0.220989      0.377246      0.168149
     14.19440      5.68443     16.26201         0.003419      0.000716      0.013540
     20.16991      0.07395      9.92551        -0.067139      0.004577      0.307207
      2.22200      2.70048     12.55675        -0.058220     -0.066464     -0.802442
      4.01559      3.69424     14.26527        -0.036428     -0.009690     -0.015383
     15.00637     12.76530     12.22697         2.655652      0.212459     -0.610176
     10.22577      7.42551     10.38809         0.257074     -0.706104      0.521322
     13.43196      1.06324     15.35152         0.016808      0.005297      0.003639
      3.54535     10.75329     10.45651        -0.005237      0.702578      0.087690
      6.26814     10.91510     10.54651         0.151276      0.312049      0.043697
     10.30702      5.83863     12.64390         0.366819      0.037887     -0.839569
      5.57211      2.87242     11.55719         0.328119      0.282929     -0.358458
      1.70396      2.72402     15.12434        -0.000828     -0.003192     -0.007122
     19.78303      9.86119     16.12245         0.006268     -0.003589     -0.005390
     14.54261      5.07286     11.04652         1.388920      0.650627      0.842913
     14.10921     16.15557     12.56054        23.538127     14.634950     -4.508591
      0.73477      3.53889     10.45741         0.414350      0.155752      0.276795
     14.22581      3.54500     14.71630         0.010790     -0.009000      0.002158
      3.10901     17.00415     12.89023         0.009866     -0.153801     -0.329188
      1.87909      5.08106     13.75329        -0.003963      0.001040      0.005024
      8.71389      1.90369     15.28199        -0.018503     -0.008628     -0.004109
      1.56122     12.63028     14.40178        -0.003051      0.004825      0.000791
     15.60336      7.52729     11.56016        -0.320707      0.201227      0.449265
     18.71464     13.22218     15.16579         0.003294     -0.004512      0.014448
     16.47777     17.34580     12.64014        -0.773703      0.364036     -0.203376
     13.98419     11.46425     14.87680         0.006253      0.001773      0.001555
     16.92263      5.32193     12.14236         0.254857      0.049385     -0.019528
     22.88598      5.69308     14.71112        -0.001070     -0.002789      0.003877
      3.70597     11.41224     15.34108        -0.002853     -0.003179     -0.009012
     14.82717      5.92171     13.65139         0.331421      0.201388     -0.717681
     19.18826      7.18137     16.27821        -0.002675     -0.010812      0.001395
     22.44156      0.49368     11.20910        -0.304061     -0.373339     -0.318014
      6.60273      3.53610     13.94337         0.006226      0.005780      0.004691
      5.83544      8.02830     12.39473        -0.035583     -0.702251     -0.627778
      6.36507     15.40922     15.30143         0.011549     -0.011175     -0.001732
      4.76814     12.42343     13.08921         0.241472      0.548463     -0.373070
      3.44435      8.62698     13.24127        -0.286644      0.091166      0.211473
      5.26923      7.67101     14.96885        -0.002024     -0.000588      0.001494
     21.33745      8.20429     12.73516        -0.250588     -0.144832     -0.134597
     20.36287     12.76750     12.47801         0.322083      0.276110      0.444701
     17.28035      1.68228     11.96927        -0.171007     -0.271438      0.485566
      5.20160     16.84879     10.96698        -0.331989      0.362320      0.372498
      5.90594      7.28967     17.45647        -0.000859     -0.001624     -0.009856
     14.75903     16.00847     15.95165         0.020888     -0.007374      0.004293
      9.60386     14.29879     11.38342        -0.518715     -0.404314      0.317245
     21.48622      3.55246     13.66334        -0.759555     -0.027151     -0.107129
      3.10310      8.03742      8.93261         0.095970     -0.241306      0.319663
      3.63221      5.50022      8.34891        -0.162299      0.544872      0.363554
      8.73253      2.37220      9.35416         0.192055      0.604382      0.349929
      0.81001      5.29101     17.02914        -0.004160     -0.019813     -0.013090
     13.40740      4.65477      8.60536        -0.203521      0.160859      0.222409
      5.74002     13.96063     17.48065        -0.003994     -0.014821     -0.016066
      4.85490     11.74990      8.34377         0.076389     -0.130507      0.511582
      6.44687      7.10699      9.87630         0.020876      0.046050      0.708282
      8.55334     10.82901      9.20005        -0.085832     -0.023778      0.753507
      5.29987      1.01807      9.62744        -0.073380      0.788923      0.119321
      5.64688      3.55318      8.85385        -0.376627     -0.059931      0.456812
     11.73545     16.16961     12.22768        -2.210873      1.030104     -0.697004
     12.87703     15.00105     14.36524        -0.009283     -0.001192     -0.003145
     12.76984     11.72530     17.06319        -0.003237     -0.001662     -0.004986
     11.19040      2.21145     16.02998         0.006282      0.007446      0.003022
      6.14135     12.59010     15.28544        -0.003690      0.002324     -0.003728
     10.36540     15.34441     15.64260         0.016975      0.010132      0.003471
     17.92404     11.17753     17.45815        -0.009412      0.000801     -0.003981
     19.77809     15.07255     16.74870         0.001986     -0.007374      0.000904
     14.98589     13.40288     16.68439        -0.000538      0.004017     -0.008759
      0.19095      0.60623     16.21056        -0.000372     -0.000068     -0.005616
      6.64973      0.05167     15.95727         0.012059     -0.008930      0.001681
     11.77382     17.61373     16.90108        -0.006106      0.001650      0.007943
     10.73514      7.76564     19.50580         0.012097      0.019252     -0.005599
      1.94841     10.98909     10.92575        -0.062949     -0.148894      0.030156
      9.57706     13.86463     15.45635         0.008169     -0.000839     -0.002773
     19.70678      7.99968     12.57709         0.151756     -0.181598     -0.337230
      0.40009     17.94876     10.58160         0.101956     -0.137712      0.300563
      0.34415      5.14988     10.51358         0.046982      0.034057      0.055279
      0.21750      2.08520     15.39125        -0.007401      0.002870     -0.002326
     14.27352     11.91800     16.41674         0.005913     -0.002535      0.003601
      5.01097      8.62854     13.70158        -0.000033     -0.005031     -0.004516
     21.42279     13.69170     13.34099         0.211287      0.239028     -0.635879
     12.18742      2.00159     11.45195         0.164070     -0.064336      0.472375
      9.79294      3.07571     15.83866        -0.007787     -0.014381      0.002870
      1.95373      2.52197     10.94102         0.078433     -0.117482      0.060690
     16.43234      0.81267     13.10088         0.085307     -0.079856     -0.320267
     15.56990     16.27355     11.76084        -0.474411      4.554758     -0.225847
     15.21965      9.13359     11.56390         0.084343      0.027031      0.219116
      4.64622     16.53531     12.47363        -0.713887      6.181067     -0.352194
      5.01964      6.65466     16.22392         0.003610     -0.009194     -0.002619
     15.77239     14.74839     15.98179        -0.011625      0.008474      0.001769
      5.07166     11.62957     14.47875        -0.002719     -0.001309      0.001333
      8.63383     13.32142     12.34509        -0.278407     -0.022526      0.055484
     18.67071     16.10331     16.01375         0.002235      0.006107      0.000280
     20.59807     16.53210     13.76367         0.002691     -0.000349      0.006059
     13.48375     10.40341     13.75337        -0.000080      0.006711      0.002536
     13.80867      2.09413     14.11985        -0.002744      0.003786     -0.001537
     20.08975      2.75648     13.31200        -0.176298     -0.007788     -0.437994
     19.56120     10.93851     17.36188         0.001246      0.000275     -0.004983
      3.13099      6.52942      9.59393        -0.097084     -0.114341      0.043885
     18.51026      5.07285     11.87902        -0.281926      0.101935      0.072879
      9.34523      3.21643     10.64590        -0.143473     -0.309779      0.222767
     20.04062     13.59387     16.03738         0.002637     -0.003838     -0.004742
      6.61643     16.94384     14.78240         0.010381     -0.006410      0.001055
      0.54021      5.98812     13.50205         0.316458      0.195491     -0.420618
     13.45118     12.60314     11.70944         3.910420     -0.875419     -2.483928
      5.39024     13.63805     12.15046         0.108287     -0.588088      0.007051
     13.89923      5.15044     14.74145        -0.000358      0.000436      0.003401
     22.83086      4.93443     16.20006         0.005283      0.006855      0.002339
     20.81045      0.46044     11.40393         0.027580      0.047882      0.097891
      2.45142      3.54209     13.91814         0.011721      0.004059      0.002422
      1.12715     13.28354     12.97472        -0.123269     -0.566207     -0.248522
      5.42831      3.73416     15.08080         0.008812     -0.002581      0.007124
     13.14328      4.67139     10.24864         8.346705     -5.355210     -3.590237
     11.17165     11.35659     16.75300        -0.000741      0.008334      0.003755
      6.57943     13.96786     16.07418         0.000766      0.000547      0.002277
      4.88127     11.65920      9.99509         0.070681     -0.071310      0.007416
     17.33480     12.88441     14.40420        -0.008066     -0.007011      0.003290
     23.09737     17.95178     14.79565         0.003443     -0.002737     -0.003239
     16.46059     13.35206     11.67438        -0.700346     -1.353282      0.328992
     18.44639      1.07836     15.50568         0.002562      0.000232     -0.000555
     10.68290      5.95195     11.00304        -1.155985      0.534932      0.456975
     10.51552     16.96043     15.98471         0.016457      0.009401     -0.018490
     11.89619      0.74290     15.75456         0.001386      0.005248      0.002051
      5.71814      6.71222     11.31648         0.020869     -0.130630     -0.110986
     15.41693      5.98005     12.10687        -0.160180     -0.476767     -0.814523
     10.76974      5.76274     14.21732        -0.002778     -0.007608     -0.005044
      7.89661     10.69049     10.72869        -0.131434     -0.085054     -0.065409
     18.80622      8.63333     15.58488        -0.002409      0.000657      0.005846
      1.62029     16.28844     12.91761        -0.323162      6.443135     -0.549369
      4.96103      2.61769     10.04353        -0.068746     -0.040314      0.063171
      1.83153      8.95162     13.29887         0.014430     -0.145801     -0.316410
     13.05344     15.44546     12.76235       -22.325485    -15.840914      4.719176
     16.82116     10.59718     16.38400        -0.010344     -0.000220      0.005309
      6.71066      3.80730     12.34244        -0.228343      0.000519     -0.752104
      2.06247     11.33395     15.25990        -0.003430      0.003486     -0.002805
      8.26578      0.35499     15.54554        -0.001643     -0.002895     -0.003563
     11.39784      8.68899     15.36402         0.006347     -0.005221     -0.004956
     11.58151      8.93975     18.57434        -0.003763     -0.008843      0.001265
 -----------------------------------------------------------------------------------
    total drift:                                0.189104      0.506993     -0.026985


--------------------------------------------------------------------------------------------------------



  FREE ENERGIE OF THE ION-ELECTRON SYSTEM (eV)
  ---------------------------------------------------
  free  energy   TOTEN  =     -1854.37770942 eV

  energy  without entropy=    -1854.37770942  energy(sigma->0) =    -1854.37770942
 
 d Force = 0.7659581E-05[-0.732E-05, 0.226E-04]  d Energy =-0.4987170E-05 0.126E-04
 d Force =-0.7296494E-01[-0.730E-01,-0.729E-01]  d Ewald  =-0.7296484E-01-0.105E-06


--------------------------------------------------------------------------------------------------------


    POTLOK:  cpu time    0.2252: real time    0.2299


--------------------------------------------------------------------------------------------------------




--------------------------------------------------------------------------------------------------------


  
 reached required accuracy - stopping structural energy minimisation
 writing wavefunctions
     LOOP+:  cpu time  182.6132: real time  184.8217
    4ORBIT:  cpu time    0.0000: real time    0.0000

 total amount of memory used by VASP MPI-rank0   158799. kBytes
=======================================================================

   base      :      30000. kBytes
   nonlr-proj:      16574. kBytes
   fftplans  :      16927. kBytes
   grid      :      24077. kBytes
   one-center:       1057. kBytes
   wavefun   :      70164. kBytes
 
  
  
 General timing and accounting informations for this job:
 ========================================================
  
                  Total CPU time used (sec):     1126.689
                            User time (sec):     1116.646
                          System time (sec):       10.043
                         Elapsed time (sec):     1141.580
  
                   Maximum memory used (kb):      537560.
                   Average memory used (kb):           0.
  
                          Minor page faults:       183745
                          Major page faults:           18
                 Voluntary context switches:         2384
