ESCALE ; pCOHP file generated by LOBSTER. Energy is shifted such that the Fermi level lies at 0 eV.
        73          1        801  -2.27331e+01   1.73169e+01  -2.70809e+00 
Average
No.1:O204->W270(1.7206570726413413)
No.1:O204[2s]->W270[6s](1.7206570726413413)
No.1:O204[2s]->W270[5d_xy](1.7206570726413413)
No.1:O204[2s]->W270[5d_yz](1.7206570726413413)
No.1:O204[2s]->W270[5d_z^2](1.7206570726413413)
No.1:O204[2s]->W270[5d_xz](1.7206570726413413)
No.1:O204[2s]->W270[5d_x^2-y^2](1.7206570726413413)
No.1:O204[2p_y]->W270[6s](1.7206570726413413)
No.1:O204[2p_y]->W270[5d_xy](1.7206570726413413)
No.1:O204[2p_y]->W270[5d_yz](1.7206570726413413)
No.1:O204[2p_y]->W270[5d_z^2](1.7206570726413413)
No.1:O204[2p_y]->W270[5d_xz](1.7206570726413413)
No.1:O204[2p_y]->W270[5d_x^2-y^2](1.7206570726413413)
No.1:O204[2p_z]->W270[6s](1.7206570726413413)
No.1:O204[2p_z]->W270[5d_xy](1.7206570726413413)
No.1:O204[2p_z]->W270[5d_yz](1.7206570726413413)
No.1:O204[2p_z]->W270[5d_z^2](1.7206570726413413)
No.1:O204[2p_z]->W270[5d_xz](1.7206570726413413)
No.1:O204[2p_z]->W270[5d_x^2-y^2](1.7206570726413413)
No.1:O204[2p_x]->W270[6s](1.7206570726413413)
No.1:O204[2p_x]->W270[5d_xy](1.7206570726413413)
No.1:O204[2p_x]->W270[5d_yz](1.7206570726413413)
No.1:O204[2p_x]->W270[5d_z^2](1.7206570726413413)
No.1:O204[2p_x]->W270[5d_xz](1.7206570726413413)
No.1:O204[2p_x]->W270[5d_x^2-y^2](1.7206570726413413)
No.2:H48->C1(1.109193466386478)
No.2:H48[1s]->C1[2s](1.109193466386478)
No.2:H48[1s]->C1[2p_y](1.109193466386478)
No.2:H48[1s]->C1[2p_z](1.109193466386478)
No.2:H48[1s]->C1[2p_x](1.109193466386478)
No.3:C1->W270(1.9010507642908683)
No.3:C1[2s]->W270[6s](1.9010507642908683)
No.3:C1[2s]->W270[5d_xy](1.9010507642908683)
No.3:C1[2s]->W270[5d_yz](1.9010507642908683)
No.3:C1[2s]->W270[5d_z^2](1.9010507642908683)
No.3:C1[2s]->W270[5d_xz](1.9010507642908683)
No.3:C1[2s]->W270[5d_x^2-y^2](1.9010507642908683)
No.3:C1[2p_y]->W270[6s](1.9010507642908683)
No.3:C1[2p_y]->W270[5d_xy](1.9010507642908683)
No.3:C1[2p_y]->W270[5d_yz](1.9010507642908683)
No.3:C1[2p_y]->W270[5d_z^2](1.9010507642908683)
No.3:C1[2p_y]->W270[5d_xz](1.9010507642908683)
No.3:C1[2p_y]->W270[5d_x^2-y^2](1.9010507642908683)
No.3:C1[2p_z]->W270[6s](1.9010507642908683)
No.3:C1[2p_z]->W270[5d_xy](1.9010507642908683)
No.3:C1[2p_z]->W270[5d_yz](1.9010507642908683)
No.3:C1[2p_z]->W270[5d_z^2](1.9010507642908683)
No.3:C1[2p_z]->W270[5d_xz](1.9010507642908683)
No.3:C1[2p_z]->W270[5d_x^2-y^2](1.9010507642908683)
No.3:C1[2p_x]->W270[6s](1.9010507642908683)
No.3:C1[2p_x]->W270[5d_xy](1.9010507642908683)
No.3:C1[2p_x]->W270[5d_yz](1.9010507642908683)
No.3:C1[2p_x]->W270[5d_z^2](1.9010507642908683)
No.3:C1[2p_x]->W270[5d_xz](1.9010507642908683)
No.3:C1[2p_x]->W270[5d_x^2-y^2](1.9010507642908683)
No.4:C1->C2(1.5056097681573799)
No.4:C1[2s]->C2[2s](1.5056097681573799)
No.4:C1[2s]->C2[2p_y](1.5056097681573799)
No.4:C1[2s]->C2[2p_z](1.5056097681573799)
No.4:C1[2s]->C2[2p_x](1.5056097681573799)
No.4:C1[2p_y]->C2[2s](1.5056097681573799)
No.4:C1[2p_y]->C2[2p_y](1.5056097681573799)
No.4:C1[2p_y]->C2[2p_z](1.5056097681573799)
No.4:C1[2p_y]->C2[2p_x](1.5056097681573799)
No.4:C1[2p_z]->C2[2s](1.5056097681573799)
No.4:C1[2p_z]->C2[2p_y](1.5056097681573799)
No.4:C1[2p_z]->C2[2p_z](1.5056097681573799)
No.4:C1[2p_z]->C2[2p_x](1.5056097681573799)
No.4:C1[2p_x]->C2[2s](1.5056097681573799)
No.4:C1[2p_x]->C2[2p_y](1.5056097681573799)
No.4:C1[2p_x]->C2[2p_z](1.5056097681573799)
No.4:C1[2p_x]->C2[2p_x](1.5056097681573799)
-20.02503   0.00000  -0.01326   0.00000  -0.05150   0.00000  -0.04828   0.00000   0.01338   0.00000  -0.00675   0.00000  -0.00005   0.00000  -0.00149   0.00000  -0.00462   0.00000  -0.00221   0.00000   0.00158   0.00000  -0.00078   0.00000   0.00004   0.00000  -0.00031   0.00000   0.00115   0.00000  -0.00146   0.00000   0.00183   0.00000  -0.00015   0.00000   0.00041   0.00000  -0.00005   0.00000  -0.00057   0.00000  -0.00085   0.00000   0.00007   0.00000  -0.00059   0.00000  -0.00008   0.00000  -0.00003   0.00000  -0.00171   0.00000  -0.00080   0.00000  -0.00023   0.00000  -0.00023   0.00000  -0.00020   0.00000  -0.00013   0.00000  -0.00084   0.00000  -0.00399   0.00000   0.00019   0.00000   0.00002   0.00000   0.00013   0.00000   0.00043   0.00000   0.00113   0.00000  -0.00002   0.00000   0.00072   0.00000   0.00067   0.00000   0.00016   0.00000   0.00008   0.00000  -0.00028   0.00000  -0.00160   0.00000   0.00006   0.00000   0.00006   0.00000   0.00184   0.00000  -0.00020   0.00000   0.00084   0.00000  -0.00312   0.00000   0.00033   0.00000   0.00002   0.00000  -0.00009   0.00000   0.00077   0.00000   0.00098   0.00000   0.00010   0.00000  -0.00001   0.00000  -0.00001   0.00000  -0.00004   0.00000   0.00002   0.00000  -0.00002   0.00000   0.00001   0.00000  -0.00000   0.00000   0.00000   0.00000   0.00001   0.00000   0.00005   0.00000   0.00004   0.00000  -0.00000   0.00000   0.00000   0.00000   0.00004   0.00000   0.00001   0.00000   0.00001
-19.97497  -0.01726  -0.01413  -0.07434  -0.05522  -0.07012  -0.05179   0.02454   0.01461  -0.01225  -0.00736  -0.00088  -0.00010  -0.00411  -0.00169  -0.00873  -0.00506  -0.00229  -0.00233   0.00224   0.00169  -0.00111  -0.00083   0.00051   0.00006  -0.00061  -0.00034   0.00167   0.00124  -0.00153  -0.00154   0.00227   0.00195  -0.00005  -0.00015   0.00051   0.00044  -0.00015  -0.00006  -0.00073  -0.00061  -0.00089  -0.00089   0.00009   0.00008  -0.00035  -0.00061  -0.00008  -0.00008  -0.00009  -0.00004  -0.00218  -0.00182  -0.00013  -0.00081  -0.00026  -0.00025   0.00015  -0.00023  -0.00016  -0.00021   0.00014  -0.00013   0.00525  -0.00058  -0.00407  -0.00419   0.00012   0.00019  -0.00011   0.00002   0.00063   0.00017   0.00157   0.00051   0.00071   0.00117   0.00001  -0.00002   0.00100   0.00077   0.00160   0.00075   0.00050   0.00018   0.00029   0.00009  -0.00038  -0.00030  -0.00132  -0.00167  -0.00003   0.00006   0.00040   0.00008   0.00582   0.00213  -0.00067  -0.00023  -0.00063   0.00081  -0.00337  -0.00329   0.00043   0.00035  -0.00004   0.00002  -0.00010  -0.00009   0.00154   0.00085   0.00133   0.00105   0.00017   0.00011  -0.00010  -0.00001  -0.00002  -0.00001  -0.00008  -0.00005   0.00000   0.00002  -0.00002  -0.00002   0.00001   0.00001  -0.00010  -0.00001   0.00001   0.00000   0.00010   0.00001   0.00006   0.00005   0.00006   0.00005   0.00001  -0.00000   0.00011   0.00001   0.00004   0.00004   0.00006   0.00002  -0.00001   0.00001
-19.92491  -0.03022  -0.01564  -0.12776  -0.06162  -0.12031  -0.05781   0.04012   0.01662  -0.01816  -0.00827  -0.00120  -0.00016  -0.00851  -0.00212  -0.01448  -0.00578  -0.00390  -0.00252   0.00363   0.00187  -0.00165  -0.00091   0.00071   0.00010  -0.00131  -0.00040   0.00274   0.00137  -0.00264  -0.00167   0.00383   0.00214  -0.00008  -0.00015   0.00083   0.00048  -0.00026  -0.00007  -0.00125  -0.00067  -0.00150  -0.00097   0.00015   0.00009  -0.00061  -0.00064  -0.00009  -0.00009  -0.00015  -0.00005  -0.00367  -0.00200  -0.00019  -0.00082  -0.00029  -0.00026   0.00016  -0.00022  -0.00020  -0.00022   0.00013  -0.00012   0.00688  -0.00024  -0.00673  -0.00453   0.00021   0.00020  -0.00016   0.00001   0.00092   0.00021   0.00244   0.00063   0.00135   0.00123   0.00002  -0.00002   0.00144   0.00085   0.00210   0.00086   0.00064   0.00021   0.00038   0.00011  -0.00051  -0.00032  -0.00217  -0.00178  -0.00002   0.00006   0.00055   0.00011   0.00814   0.00254  -0.00098  -0.00028  -0.00047   0.00079  -0.00538  -0.00356   0.00071   0.00038   0.00008   0.00002  -0.00007  -0.00009   0.00208   0.00096   0.00230   0.00116   0.00019   0.00012  -0.00016  -0.00002  -0.00004  -0.00002  -0.00012  -0.00005  -0.00001   0.00002  -0.00002  -0.00002   0.00001   0.00001  -0.00011  -0.00001   0.00001   0.00000   0.00017   0.00002   0.00008   0.00006   0.00009   0.00005   0.00002  -0.00000   0.00017   0.00002   0.00005   0.00004   0.00007   0.00002  -0.00001   0.00001
-19.87484  -0.04858  -0.01807  -0.20255  -0.07176  -0.19158  -0.06740   0.06100   0.01968  -0.02382  -0.00946  -0.00127  -0.00022  -0.01589  -0.00291  -0.02214  -0.00689  -0.00620  -0.00283   0.00549   0.00214  -0.00216  -0.00102   0.00078   0.00014  -0.00252  -0.00053   0.00417   0.00158  -0.00420  -0.00188   0.00601   0.00244  -0.00011  -0.00016   0.00139   0.00055  -0.00042  -0.00009  -0.00197  -0.00077  -0.00237  -0.00109   0.00023   0.00010  -0.00085  -0.00068  -0.00017  -0.00009  -0.00025  -0.00006  -0.00571  -0.00229  -0.00027  -0.00083  -0.00035  -0.00028   0.00018  -0.00021  -0.00026  -0.00023   0.00015  -0.00011   0.00823   0.00018  -0.01054  -0.00505   0.00037   0.00022  -0.00020  -0.00000   0.00126   0.00028   0.00357   0.00081   0.00236   0.00135   0.00002  -0.00002   0.00183   0.00094   0.00260   0.00099   0.00079   0.00025   0.00048   0.00013  -0.00062  -0.00035  -0.00339  -0.00194   0.00001   0.00006   0.00071   0.00014   0.01066   0.00307  -0.00135  -0.00035   0.00006   0.00079  -0.00827  -0.00397   0.00108   0.00044   0.00018   0.00003  -0.00006  -0.00010   0.00304   0.00111   0.00361   0.00134   0.00026   0.00013  -0.00025  -0.00003  -0.00006  -0.00002  -0.00017  -0.00006  -0.00003   0.00002  -0.00002  -0.00002   0.00001   0.00001  -0.00014  -0.00002   0.00001   0.00000   0.00027   0.00003   0.00010   0.00006   0.00011   0.00006   0.00003  -0.00000   0.00026   0.00003   0.00006   0.00005   0.00009   0.00002  -0.00002   0.00001
-19.82478  -0.07019  -0.02158  -0.28951  -0.08625  -0.27533  -0.08119   0.08434   0.02390  -0.02788  -0.01086  -0.00099  -0.00027  -0.02567  -0.00420  -0.03068  -0.00842  -0.00889  -0.00328   0.00755   0.00252  -0.00252  -0.00115   0.00068   0.00017  -0.00416  -0.00074   0.00575   0.00187  -0.00603  -0.00219   0.00854   0.00287  -0.00012  -0.00017   0.00212   0.00065  -0.00061  -0.00012  -0.00281  -0.00091  -0.00340  -0.00126   0.00033   0.00011  -0.00100  -0.00073  -0.00030  -0.00011  -0.00036  -0.00008  -0.00804  -0.00269  -0.00034  -0.00085  -0.00041  -0.00030   0.00021  -0.00020  -0.00032  -0.00025   0.00019  -0.00010   0.00875   0.00061  -0.01497  -0.00580   0.00057   0.00025  -0.00024  -0.00001   0.00159   0.00035   0.00477   0.00105   0.00364   0.00153   0.00003  -0.00002   0.00204   0.00104   0.00297   0.00114   0.00090   0.00030   0.00055   0.00016  -0.00068  -0.00039  -0.00480  -0.00219   0.00007   0.00006   0.00082   0.00018   0.01275   0.00371  -0.00169  -0.00043   0.00103   0.00084  -0.01168  -0.00456   0.00151   0.00051   0.00025   0.00004  -0.00008  -0.00010   0.00432   0.00132   0.00508   0.00160   0.00035   0.00015  -0.00036  -0.00005  -0.00008  -0.00002  -0.00023  -0.00007  -0.00005   0.00001  -0.00002  -0.00002   0.00001   0.00001  -0.00015  -0.00003   0.00001   0.00000   0.00040   0.00005   0.00012   0.00007   0.00014   0.00006   0.00005   0.00000   0.00036   0.00005   0.00007   0.00005   0.00012   0.00003  -0.00003   0.00001
-19.77472  -0.09057  -0.02612  -0.37047  -0.10480  -0.35391  -0.09890   0.10523   0.02917  -0.02959  -0.01234  -0.00044  -0.00029  -0.03573  -0.00599  -0.03833  -0.01034  -0.01142  -0.00385   0.00938   0.00299  -0.00266  -0.00128   0.00043   0.00019  -0.00587  -0.00103   0.00715   0.00223  -0.00775  -0.00257   0.01090   0.00341  -0.00014  -0.00017   0.00278   0.00079  -0.00079  -0.00016  -0.00360  -0.00109  -0.00435  -0.00148   0.00042   0.00014  -0.00108  -0.00078  -0.00045  -0.00013  -0.00048  -0.00010  -0.01018  -0.00320  -0.00038  -0.00087  -0.00046  -0.00032   0.00023  -0.00019  -0.00036  -0.00027   0.00022  -0.00009   0.00810   0.00102  -0.01904  -0.00676   0.00078   0.00029  -0.00026  -0.00003   0.00179   0.00044   0.00574   0.00133   0.00494   0.00178   0.00003  -0.00001   0.00200   0.00114   0.00307   0.00129   0.00093   0.00034   0.00059   0.00019  -0.00066  -0.00042  -0.00608  -0.00249   0.00015   0.00007   0.00086   0.00023   0.01372   0.00440  -0.00193  -0.00053   0.00227   0.00096  -0.01486  -0.00530   0.00188   0.00061   0.00029   0.00006  -0.00011  -0.00011   0.00561   0.00161   0.00640   0.00192   0.00045   0.00017  -0.00046  -0.00007  -0.00010  -0.00003  -0.00027  -0.00009  -0.00007   0.00001  -0.00003  -0.00002   0.00001   0.00001  -0.00016  -0.00004   0.00001   0.00000   0.00053   0.00008   0.00014   0.00008   0.00015   0.00007   0.00007   0.00001   0.00045   0.00007   0.00008   0.00005   0.00014   0.00004  -0.00004   0.00000
-19.72466  -0.10426  -0.03134  -0.42358  -0.12600  -0.40576  -0.11922   0.11818   0.03508  -0.02905  -0.01379   0.00014  -0.00029  -0.04307  -0.00814  -0.04308  -0.01250  -0.01308  -0.00450   0.01050   0.00352  -0.00259  -0.00141   0.00014   0.00020  -0.00716  -0.00139   0.00800   0.00263  -0.00887  -0.00302   0.01249   0.00404  -0.00017  -0.00018   0.00311   0.00095  -0.00090  -0.00021  -0.00412  -0.00129  -0.00498  -0.00172   0.00047   0.00016  -0.00112  -0.00084  -0.00055  -0.00016  -0.00055  -0.00013  -0.01157  -0.00378  -0.00038  -0.00089  -0.00047  -0.00035   0.00023  -0.00018  -0.00037  -0.00029   0.00024  -0.00008   0.00638   0.00134  -0.02158  -0.00784   0.00093   0.00034  -0.00024  -0.00004   0.00179   0.00053   0.00616   0.00164   0.00592   0.00208   0.00004  -0.00001   0.00171   0.00123   0.00285   0.00143   0.00087   0.00039   0.00056   0.00022  -0.00057  -0.00045  -0.00685  -0.00283   0.00023   0.00008   0.00080   0.00027   0.01321   0.00506  -0.00197  -0.00063   0.00346   0.00113  -0.01690  -0.00615   0.00212   0.00071   0.00029   0.00007  -0.00014  -0.00011   0.00648   0.00193   0.00721   0.00228   0.00053   0.00020  -0.00052  -0.00010  -0.00011  -0.00003  -0.00029  -0.00010  -0.00009   0.00001  -0.00004  -0.00003   0.00001   0.00001  -0.00015  -0.00004   0.00001   0.00000   0.00061   0.00011   0.00015   0.00008   0.00016   0.00008   0.00009   0.00001   0.00051   0.00010   0.00009   0.00006   0.00016   0.00005  -0.00005   0.00000
-19.67459  -0.10705  -0.03670  -0.43251  -0.14765  -0.41471  -0.13998   0.11933   0.04106  -0.02687  -0.01514   0.00050  -0.00026  -0.04521  -0.01041  -0.04352  -0.01468  -0.01336  -0.00517   0.01056   0.00405  -0.00236  -0.00153  -0.00007   0.00020  -0.00757  -0.00177   0.00806   0.00303  -0.00905  -0.00347   0.01281   0.00468  -0.00021  -0.00019   0.00295   0.00110  -0.00091  -0.00025  -0.00423  -0.00151  -0.00507  -0.00198   0.00048   0.00018  -0.00115  -0.00090  -0.00055  -0.00019  -0.00056  -0.00016  -0.01179  -0.00437  -0.00035  -0.00090  -0.00044  -0.00037   0.00020  -0.00017  -0.00034  -0.00030   0.00023  -0.00007   0.00409   0.00154  -0.02175  -0.00893   0.00098   0.00039  -0.00019  -0.00005   0.00159   0.00061   0.00590   0.00194   0.00626   0.00239   0.00004  -0.00001   0.00129   0.00129   0.00237   0.00155   0.00073   0.00043   0.00048   0.00024  -0.00043  -0.00047  -0.00687  -0.00318   0.00027   0.00010   0.00065   0.00030   0.01132   0.00563  -0.00180  -0.00072   0.00422   0.00134  -0.01714  -0.00701   0.00214   0.00082   0.00028   0.00009  -0.00015  -0.00012   0.00662   0.00226   0.00729   0.00264   0.00055   0.00023  -0.00053  -0.00013  -0.00011  -0.00004  -0.00027  -0.00011  -0.00009   0.00000  -0.00004  -0.00003   0.00001   0.00001  -0.00012  -0.00005   0.00000   0.00001   0.00062   0.00014   0.00014   0.00009   0.00014   0.00008   0.00009   0.00001   0.00051   0.00012   0.00009   0.00006   0.00016   0.00005  -0.00005  -0.00000
-19.62453  -0.09809  -0.04161  -0.39448  -0.16740  -0.37794  -0.15890   0.10826   0.04648  -0.02371  -0.01632   0.00052  -0.00024  -0.04149  -0.01248  -0.03952  -0.01666  -0.01217  -0.00578   0.00955   0.00452  -0.00204  -0.00163  -0.00013   0.00019  -0.00698  -0.00212   0.00729   0.00340  -0.00823  -0.00388   0.01176   0.00527  -0.00025  -0.00020   0.00233   0.00121  -0.00081  -0.00029  -0.00389  -0.00170  -0.00460  -0.00221   0.00044   0.00021  -0.00116  -0.00096  -0.00045  -0.00021  -0.00050  -0.00018  -0.01077  -0.00491  -0.00028  -0.00092  -0.00036  -0.00039   0.00017  -0.00016  -0.00028  -0.00032   0.00019  -0.00006   0.00191   0.00164  -0.01951  -0.00990   0.00091   0.00043  -0.00013  -0.00006   0.00124   0.00068   0.00502   0.00219   0.00586   0.00268   0.00003  -0.00001   0.00085   0.00133   0.00176   0.00164   0.00055   0.00045   0.00036   0.00026  -0.00029  -0.00048  -0.00611  -0.00348   0.00028   0.00011   0.00047   0.00032   0.00861   0.00606  -0.00147  -0.00079   0.00433   0.00156  -0.01549  -0.00778   0.00193   0.00092   0.00026   0.00010  -0.00013  -0.00013   0.00596   0.00256   0.00659   0.00297   0.00050   0.00025  -0.00048  -0.00015  -0.00009  -0.00004  -0.00023  -0.00013  -0.00009  -0.00000  -0.00003  -0.00003   0.00001   0.00001  -0.00009  -0.00006   0.00000   0.00001   0.00056   0.00017   0.00012   0.00010   0.00011   0.00009   0.00009   0.00002   0.00046   0.00015   0.00007   0.00007   0.00014   0.00006  -0.00004  -0.00000
-19.57447  -0.08023  -0.04562  -0.32150  -0.18350  -0.30727  -0.17428   0.08823   0.05089  -0.01993  -0.01732   0.00030  -0.00022  -0.03341  -0.01416  -0.03224  -0.01827  -0.00988  -0.00628   0.00777   0.00491  -0.00168  -0.00172  -0.00007   0.00018  -0.00564  -0.00240   0.00593   0.00369  -0.00668  -0.00422   0.00968   0.00575  -0.00027  -0.00022   0.00151   0.00129  -0.00063  -0.00033  -0.00321  -0.00186  -0.00373  -0.00240   0.00036   0.00022  -0.00111  -0.00101  -0.00030  -0.00022  -0.00040  -0.00020  -0.00882  -0.00535  -0.00020  -0.00093  -0.00026  -0.00040   0.00012  -0.00015  -0.00020  -0.00033   0.00014  -0.00005   0.00034   0.00166  -0.01557  -0.01068   0.00076   0.00047  -0.00007  -0.00006   0.00084   0.00072   0.00380   0.00238   0.00487   0.00293   0.00002  -0.00001   0.00051   0.00136   0.00117   0.00170   0.00037   0.00047   0.00025   0.00027  -0.00017  -0.00049  -0.00482  -0.00372   0.00024   0.00012   0.00030   0.00034   0.00580   0.00635  -0.00107  -0.00084   0.00382   0.00175  -0.01248  -0.00841   0.00157   0.00100   0.00023   0.00011  -0.00009  -0.00013   0.00472   0.00280   0.00535   0.00324   0.00041   0.00027  -0.00038  -0.00017  -0.00007  -0.00005  -0.00017  -0.00013  -0.00007  -0.00001  -0.00003  -0.00003   0.00000   0.00001  -0.00006  -0.00006   0.00000   0.00001   0.00045   0.00019   0.00009   0.00010   0.00008   0.00009   0.00007   0.00002   0.00037   0.00016   0.00006   0.00007   0.00011   0.00007  -0.00004  -0.00001
-19.52441  -0.05863  -0.04856  -0.23423  -0.19522  -0.22302  -0.18545   0.06457   0.05413  -0.01573  -0.01811   0.00001  -0.00022  -0.02366  -0.01534  -0.02362  -0.01945  -0.00717  -0.00664   0.00567   0.00520  -0.00130  -0.00178   0.00003   0.00019  -0.00401  -0.00260   0.00434   0.00391  -0.00483  -0.00446   0.00713   0.00611  -0.00026  -0.00023   0.00074   0.00133  -0.00044  -0.00035  -0.00237  -0.00198  -0.00269  -0.00253   0.00026   0.00024  -0.00098  -0.00106  -0.00015  -0.00023  -0.00028  -0.00021  -0.00647  -0.00567  -0.00012  -0.00093  -0.00016  -0.00041   0.00008  -0.00015  -0.00013  -0.00033   0.00009  -0.00005  -0.00047   0.00163  -0.01107  -0.01124   0.00056   0.00050  -0.00003  -0.00006   0.00050   0.00074   0.00255   0.00251   0.00360   0.00311   0.00001  -0.00001   0.00028   0.00137   0.00070   0.00173   0.00022   0.00048   0.00015   0.00028  -0.00009  -0.00050  -0.00339  -0.00389   0.00019   0.00013   0.00016   0.00035   0.00344   0.00652  -0.00070  -0.00088   0.00293   0.00190  -0.00897  -0.00886   0.00114   0.00105   0.00020   0.00012  -0.00005  -0.00014   0.00330   0.00296   0.00389   0.00344   0.00030   0.00029  -0.00027  -0.00018  -0.00005  -0.00005  -0.00012  -0.00014  -0.00005  -0.00001  -0.00002  -0.00003   0.00000   0.00001  -0.00004  -0.00006   0.00000   0.00001   0.00032   0.00021   0.00006   0.00010   0.00005   0.00010   0.00005   0.00003   0.00027   0.00018   0.00004   0.00007   0.00008   0.00007  -0.00003  -0.00001
-19.47434  -0.03829  -0.05048  -0.15262  -0.20286  -0.14460  -0.19269   0.04241   0.05625  -0.01147  -0.01868  -0.00019  -0.00023  -0.01476  -0.01608  -0.01553  -0.02023  -0.00464  -0.00687   0.00372   0.00538  -0.00094  -0.00183   0.00010   0.00019  -0.00251  -0.00273   0.00285   0.00405  -0.00312  -0.00462   0.00470   0.00634  -0.00022  -0.00024   0.00022   0.00134  -0.00027  -0.00036  -0.00156  -0.00206  -0.00174  -0.00262   0.00017   0.00024  -0.00078  -0.00110  -0.00004  -0.00023  -0.00017  -0.00022  -0.00426  -0.00589  -0.00006  -0.00094  -0.00009  -0.00041   0.00005  -0.00014  -0.00007  -0.00034   0.00005  -0.00004  -0.00069   0.00160  -0.00701  -0.01159   0.00037   0.00052  -0.00000  -0.00006   0.00025   0.00076   0.00152   0.00258   0.00237   0.00323   0.00001  -0.00001   0.00014   0.00138   0.00037   0.00175   0.00012   0.00049   0.00008   0.00028  -0.00005  -0.00050  -0.00212  -0.00400   0.00013   0.00014   0.00007   0.00035   0.00179   0.00661  -0.00040  -0.00090   0.00197   0.00200  -0.00575  -0.00914   0.00074   0.00109   0.00015   0.00013  -0.00002  -0.00014   0.00204   0.00306   0.00254   0.00356   0.00019   0.00030  -0.00017  -0.00019  -0.00003  -0.00005  -0.00007  -0.00014  -0.00004  -0.00001  -0.00001  -0.00003   0.00000   0.00001  -0.00002  -0.00006   0.00000   0.00001   0.00020   0.00022   0.00004   0.00011   0.00003   0.00010   0.00004   0.00003   0.00017   0.00019   0.00002   0.00007   0.00005   0.00007  -0.00002  -0.00001
-19.42428  -0.02236  -0.05160  -0.08896  -0.20732  -0.08379  -0.19688   0.02499   0.05750  -0.00758  -0.01906  -0.00025  -0.00024  -0.00813  -0.01649  -0.00917  -0.02069  -0.00269  -0.00700   0.00219   0.00549  -0.00061  -0.00186   0.00012   0.00020  -0.00138  -0.00280   0.00168   0.00414  -0.00180  -0.00471   0.00278   0.00648  -0.00016  -0.00025  -0.00004   0.00133  -0.00015  -0.00037  -0.00092  -0.00210  -0.00100  -0.00267   0.00010   0.00025  -0.00055  -0.00113   0.00001  -0.00023  -0.00009  -0.00023  -0.00251  -0.00601  -0.00003  -0.00094  -0.00004  -0.00041   0.00003  -0.00014  -0.00003  -0.00034   0.00002  -0.00004  -0.00058   0.00157  -0.00396  -0.01179   0.00022   0.00053   0.00001  -0.00006   0.00010   0.00076   0.00081   0.00262   0.00139   0.00330   0.00000  -0.00001   0.00007   0.00138   0.00018   0.00176   0.00006   0.00049   0.00004   0.00029  -0.00003  -0.00050  -0.00118  -0.00406   0.00007   0.00014   0.00003   0.00035   0.00081   0.00665  -0.00021  -0.00091   0.00117   0.00206  -0.00330  -0.00931   0.00043   0.00111   0.00011   0.00014  -0.00000  -0.00014   0.00111   0.00312   0.00148   0.00364   0.00011   0.00030  -0.00010  -0.00020  -0.00002  -0.00005  -0.00004  -0.00014  -0.00002  -0.00001  -0.00000  -0.00003   0.00000   0.00001  -0.00001  -0.00006   0.00000   0.00001   0.00011   0.00022   0.00002   0.00011   0.00002   0.00010   0.00002   0.00003   0.00010   0.00019   0.00001   0.00007   0.00002   0.00007  -0.00001  -0.00001
-19.37422  -0.01168  -0.05218  -0.04640  -0.20964  -0.04342  -0.19905   0.01321   0.05816  -0.00450  -0.01929  -0.00022  -0.00025  -0.00396  -0.01668  -0.00485  -0.02093  -0.00139  -0.00707   0.00115   0.00555  -0.00036  -0.00188   0.00010   0.00020  -0.00067  -0.00283   0.00089   0.00418  -0.00093  -0.00475   0.00147   0.00656  -0.00010  -0.00025  -0.00012   0.00133  -0.00007  -0.00037  -0.00049  -0.00213  -0.00052  -0.00269   0.00005   0.00025  -0.00034  -0.00114   0.00003  -0.00023  -0.00004  -0.00023  -0.00132  -0.00608  -0.00001  -0.00094  -0.00002  -0.00041   0.00001  -0.00014  -0.00001  -0.00034   0.00001  -0.00004  -0.00037   0.00155  -0.00200  -0.01189   0.00011   0.00053   0.00001  -0.00006   0.00003   0.00076   0.00038   0.00264   0.00073   0.00333   0.00000  -0.00001   0.00004   0.00139   0.00008   0.00177   0.00003   0.00049   0.00002   0.00029  -0.00001  -0.00050  -0.00058  -0.00409   0.00004   0.00014   0.00001   0.00035   0.00032   0.00667  -0.00010  -0.00091   0.00061   0.00209  -0.00169  -0.00939   0.00023   0.00112   0.00006   0.00014   0.00001  -0.00014   0.00054   0.00315   0.00078   0.00368   0.00006   0.00030  -0.00005  -0.00020  -0.00001  -0.00005  -0.00002  -0.00015  -0.00001  -0.00001  -0.00000  -0.00003   0.00000   0.00001  -0.00000  -0.00006   0.00000   0.00001   0.00006   0.00023   0.00001   0.00011   0.00001   0.00010   0.00001   0.00003   0.00005   0.00019   0.00001   0.00007   0.00001   0.00007  -0.00001  -0.00001
-19.32416  -0.00546  -0.05245  -0.02166  -0.21073  -0.02013  -0.20006   0.00625   0.05847  -0.00238  -0.01941  -0.00014  -0.00026  -0.00170  -0.01677  -0.00230  -0.02105  -0.00064  -0.00711   0.00055   0.00558  -0.00019  -0.00189   0.00007   0.00021  -0.00029  -0.00284   0.00042   0.00420  -0.00043  -0.00477   0.00070   0.00659  -0.00005  -0.00026  -0.00010   0.00132  -0.00003  -0.00037  -0.00023  -0.00214  -0.00024  -0.00271   0.00003   0.00025  -0.00018  -0.00115   0.00002  -0.00023  -0.00002  -0.00023  -0.00063  -0.00611   0.00000  -0.00094  -0.00000  -0.00041   0.00001  -0.00014  -0.00000  -0.00034   0.00000  -0.00004  -0.00020   0.00154  -0.00090  -0.01193   0.00005   0.00053   0.00001  -0.00006   0.00001   0.00076   0.00016   0.00265   0.00034   0.00335   0.00000  -0.00001   0.00002   0.00139   0.00003   0.00177   0.00001   0.00049   0.00001   0.00029  -0.00001  -0.00050  -0.00026  -0.00410   0.00002   0.00015   0.00000   0.00035   0.00010   0.00667  -0.00004  -0.00091   0.00028   0.00210  -0.00077  -0.00943   0.00011   0.00113   0.00004   0.00014   0.00001  -0.00014   0.00023   0.00316   0.00036   0.00370   0.00003   0.00031  -0.00002  -0.00020  -0.00000  -0.00005  -0.00001  -0.00015  -0.00001  -0.00001  -0.00000  -0.00003   0.00000   0.00001  -0.00000  -0.00006   0.00000   0.00001   0.00002   0.00023   0.00000   0.00011   0.00000   0.00010   0.00001   0.00003   0.00002   0.00020   0.00000   0.00007   0.00000   0.00007  -0.00000  -0.00001
-19.27409  -0.00228  -0.05257  -0.00905  -0.21118  -0.00835  -0.20048   0.00265   0.05861  -0.00111  -0.01946  -0.00008  -0.00026  -0.00065  -0.01680  -0.00098  -0.02110  -0.00027  -0.00712   0.00023   0.00559  -0.00009  -0.00189   0.00004   0.00021  -0.00011  -0.00285   0.00018   0.00421  -0.00018  -0.00478   0.00029   0.00661  -0.00003  -0.00026  -0.00006   0.00132  -0.00001  -0.00037  -0.00010  -0.00215  -0.00010  -0.00271   0.00001   0.00025  -0.00009  -0.00116   0.00001  -0.00023  -0.00001  -0.00023  -0.00027  -0.00612   0.00000  -0.00094  -0.00000  -0.00041   0.00000  -0.00014  -0.00000  -0.00034   0.00000  -0.00004  -0.00009   0.00154  -0.00036  -0.01195   0.00002   0.00054   0.00000  -0.00006  -0.00000   0.00076   0.00006   0.00265   0.00014   0.00336   0.00000  -0.00001   0.00001   0.00139   0.00001   0.00177   0.00000   0.00049   0.00000   0.00029  -0.00000  -0.00050  -0.00010  -0.00411   0.00001   0.00015  -0.00000   0.00035   0.00003   0.00667  -0.00001  -0.00092   0.00012   0.00211  -0.00032  -0.00945   0.00004   0.00113   0.00002   0.00014   0.00000  -0.00014   0.00009   0.00316   0.00015   0.00370   0.00001   0.00031  -0.00001  -0.00020  -0.00000  -0.00005  -0.00000  -0.00015  -0.00000  -0.00001  -0.00000  -0.00003  -0.00000   0.00001   0.00000  -0.00006   0.00000   0.00001   0.00001   0.00023   0.00000   0.00011   0.00000   0.00010   0.00000   0.00003   0.00001   0.00020   0.00000   0.00007   0.00000   0.00007  -0.00000  -0.00001
-19.22403  -0.00085  -0.05261  -0.00338  -0.21135  -0.00310  -0.20063   0.00101   0.05866  -0.00046  -0.01949  -0.00004  -0.00027  -0.00022  -0.01681  -0.00037  -0.02112  -0.00010  -0.00712   0.00009   0.00559  -0.00004  -0.00189   0.00002   0.00021  -0.00004  -0.00285   0.00007   0.00421  -0.00007  -0.00479   0.00011   0.00661  -0.00001  -0.00026  -0.00003   0.00132  -0.00000  -0.00037  -0.00004  -0.00215  -0.00004  -0.00271   0.00000   0.00025  -0.00004  -0.00116   0.00001  -0.00023  -0.00000  -0.00023  -0.00010  -0.00613   0.00001  -0.00094   0.00000  -0.00041   0.00000  -0.00014   0.00000  -0.00034   0.00000  -0.00004  -0.00004   0.00153  -0.00013  -0.01196   0.00001   0.00054   0.00000  -0.00006  -0.00000   0.00076   0.00002   0.00265   0.00005   0.00336   0.00000  -0.00001   0.00000   0.00139   0.00000   0.00177   0.00000   0.00049   0.00000   0.00029  -0.00000  -0.00050  -0.00004  -0.00411   0.00000   0.00015  -0.00000   0.00035   0.00001   0.00667  -0.00000  -0.00092   0.00004   0.00211  -0.00012  -0.00945   0.00002   0.00113   0.00001   0.00014   0.00000  -0.00014   0.00003   0.00316   0.00006   0.00371   0.00000   0.00031  -0.00000  -0.00020  -0.00000  -0.00005  -0.00000  -0.00015  -0.00000  -0.00001  -0.00000  -0.00003  -0.00000   0.00001   0.00000  -0.00006   0.00000   0.00001   0.00000   0.00023   0.00000   0.00011   0.00000   0.00010   0.00000   0.00003   0.00000   0.00020   0.00000   0.00007   0.00000   0.00007  -0.00000  -0.00001
-19.17397  -0.00029  -0.05263  -0.00114  -0.21141  -0.00103  -0.20069   0.00034   0.05867  -0.00017  -0.01949  -0.00001  -0.00027  -0.00007  -0.01682  -0.00013  -0.02112  -0.00003  -0.00713   0.00003   0.00560  -0.00001  -0.00189   0.00001   0.00021  -0.00001  -0.00285   0.00002   0.00422  -0.00002  -0.00479   0.00004   0.00661  -0.00000  -0.00026  -0.00001   0.00132  -0.00000  -0.00037  -0.00001  -0.00215  -0.00001  -0.00271   0.00000   0.00025  -0.00001  -0.00116   0.00000  -0.00023  -0.00000  -0.00023  -0.00003  -0.00613   0.00001  -0.00094   0.00000  -0.00041   0.00000  -0.00014   0.00000  -0.00034   0.00000  -0.00004  -0.00001   0.00153  -0.00004  -0.01196   0.00000   0.00054   0.00000  -0.00006  -0.00000   0.00076   0.00001   0.00265   0.00002   0.00336  -0.00000  -0.00001   0.00000   0.00139   0.00000   0.00177   0.00000   0.00049   0.00000   0.00029  -0.00000  -0.00050  -0.00001  -0.00411   0.00000   0.00015  -0.00000   0.00035  -0.00000   0.00667  -0.00000  -0.00092   0.00001   0.00211  -0.00004  -0.00946   0.00001   0.00113   0.00000   0.00014   0.00000  -0.00014   0.00001   0.00316   0.00002   0.00371   0.00000   0.00031  -0.00000  -0.00020  -0.00000  -0.00005  -0.00000  -0.00015  -0.00000  -0.00001  -0.00000  -0.00003  -0.00000   0.00001   0.00000  -0.00006   0.00000   0.00001   0.00000   0.00023   0.00000   0.00011   0.00000   0.00010   0.00000   0.00003   0.00000   0.00020   0.00000   0.00007  -0.00000   0.00007  -0.00000  -0.00001