 vasp.5.4.4.18Apr17-6-g9f103f2a35 (build Oct 20 2021 08:33:53) complex           
 executed on             LinuxGNU date 2024.03.20  01:55:00
 running on   32 total cores
 distrk:  each k-point on   32 cores,    1 groups
 distr:  one band on NCORES_PER_BAND=   4 cores,    8 groups


--------------------------------------------------------------------------------------------------------


 INCAR:
 POTCAR:    PAW_PBE C 08Apr2002                   
 POTCAR:    PAW_PBE H 15Jun2001                   
 POTCAR:    PAW_PBE O 08Apr2002                   
 POTCAR:    PAW_PBE Si 05Jan2001                  
 POTCAR:    PAW_PBE W 08Apr2002                   
 POTCAR:    PAW_PBE C 08Apr2002                   
   VRHFIN =C: s2p2                                                              
   LEXCH  = PE                                                                  
   EATOM  =   147.1560 eV,   10.8157 Ry                                         
                                                                                
   TITEL  = PAW_PBE C 08Apr2002                                                 
   LULTRA =        F    use ultrasoft PP ?                                      
   IUNSCR =        1    unscreen: 0-lin 1-nonlin 2-no                           
   RPACOR =    1.200    partial core radius                                     
   POMASS =   12.011; ZVAL   =    4.000    mass and valenz                      
   RCORE  =    1.500    outmost cutoff radius                                   
   RWIGS  =    1.630; RWIGS  =    0.863    wigner-seitz radius (au A)           
   ENMAX  =  400.000; ENMIN  =  300.000 eV                                      
   ICORE  =        2    local potential                                         
   LCOR   =        T    correct aug charges                                     
   LPAW   =        T    paw PP                                                  
   EAUG   =  644.873                                                            
   DEXC   =    0.000                                                            
   RMAX   =    1.529    core radius for proj-oper                               
   RAUG   =    1.300    factor for augmentation sphere                          
   RDEP   =    1.501    radius for radial grids                                 
   RDEPT  =    1.300    core radius for aug-charge                              
                                                                                
   Atomic configuration                                                         
    4 entries                                                                   
     n  l   j            E        occ.                                          
     1  0  0.50      -273.3789   2.0000                                         
     2  0  0.50       -13.7508   2.0000                                         
     2  1  0.50        -5.2854   2.0000                                         
     3  2  1.50        -5.4423   0.0000                                         
   Description                                                                  
     l       E           TYP  RCUT    TYP  RCUT                                 
     0    -13.7508458     23  1.200                                             
     0     -8.2022199     23  1.200                                             
     1     -5.2854383     23  1.500                                             
     1     34.0145650     23  1.500                                             
     2     -5.4423304      7  1.500                                             
  local pseudopotential read in
  partial core-charges read in
  partial kinetic energy density read in
  atomic valenz-charges read in
  non local Contribution for L=           0  read in
    real space projection operators read in
  non local Contribution for L=           0  read in
    real space projection operators read in
  non local Contribution for L=           1  read in
    real space projection operators read in
  non local Contribution for L=           1  read in
    real space projection operators read in
    PAW grid and wavefunctions read in

   number of l-projection  operators is LMAX  =           4
   number of lm-projection operators is LMMAX =           8

 POTCAR:    PAW_PBE H 15Jun2001                   
   VRHFIN =H: ultrasoft test                                                    
   LEXCH  = PE                                                                  
   EATOM  =    12.4884 eV,    0.9179 Ry                                         
                                                                                
   TITEL  = PAW_PBE H 15Jun2001                                                 
   LULTRA =        F    use ultrasoft PP ?                                      
   IUNSCR =        0    unscreen: 0-lin 1-nonlin 2-no                           
   RPACOR =    0.000    partial core radius                                     
   POMASS =    1.000; ZVAL   =    1.000    mass and valenz                      
   RCORE  =    1.100    outmost cutoff radius                                   
   RWIGS  =    0.700; RWIGS  =    0.370    wigner-seitz radius (au A)           
   ENMAX  =  250.000; ENMIN  =  200.000 eV                                      
   RCLOC  =    0.701    cutoff for local pot                                    
   LCOR   =        T    correct aug charges                                     
   LPAW   =        T    paw PP                                                  
   EAUG   =  400.000                                                            
   RMAX   =    1.123    core radius for proj-oper                               
   RAUG   =    1.200    factor for augmentation sphere                          
   RDEP   =    1.112    radius for radial grids                                 
   RDEPT  =    0.926    core radius for aug-charge                              
                                                                                
   Atomic configuration                                                         
    2 entries                                                                   
     n  l   j            E        occ.                                          
     1  0  0.50        -6.4927   1.0000                                         
     2  1  0.50        -3.4015   0.0000                                         
   Description                                                                  
     l       E           TYP  RCUT    TYP  RCUT                                 
     0     -6.4927494     23  1.100                                             
     0      6.8029130     23  1.100                                             
     1     -4.0817478     23  1.100                                             
  local pseudopotential read in
  atomic valenz-charges read in
  non local Contribution for L=           0  read in
    real space projection operators read in
  non local Contribution for L=           0  read in
    real space projection operators read in
  non local Contribution for L=           1  read in
    real space projection operators read in
    PAW grid and wavefunctions read in

   number of l-projection  operators is LMAX  =           3
   number of lm-projection operators is LMMAX =           5

 POTCAR:    PAW_PBE O 08Apr2002                   
   VRHFIN =O: s2p4                                                              
   LEXCH  = PE                                                                  
   EATOM  =   432.3788 eV,   31.7789 Ry                                         
                                                                                
   TITEL  = PAW_PBE O 08Apr2002                                                 
   LULTRA =        F    use ultrasoft PP ?                                      
   IUNSCR =        1    unscreen: 0-lin 1-nonlin 2-no                           
   RPACOR =    1.200    partial core radius                                     
   POMASS =   16.000; ZVAL   =    6.000    mass and valenz                      
   RCORE  =    1.520    outmost cutoff radius                                   
   RWIGS  =    1.550; RWIGS  =    0.820    wigner-seitz radius (au A)           
   ENMAX  =  400.000; ENMIN  =  300.000 eV                                      
   ICORE  =        2    local potential                                         
   LCOR   =        T    correct aug charges                                     
   LPAW   =        T    paw PP                                                  
   EAUG   =  605.392                                                            
   DEXC   =    0.000                                                            
   RMAX   =    1.553    core radius for proj-oper                               
   RAUG   =    1.300    factor for augmentation sphere                          
   RDEP   =    1.550    radius for radial grids                                 
   RDEPT  =    1.329    core radius for aug-charge                              
                                                                                
   Atomic configuration                                                         
    4 entries                                                                   
     n  l   j            E        occ.                                          
     1  0  0.50      -514.6923   2.0000                                         
     2  0  0.50       -23.9615   2.0000                                         
     2  1  0.50        -9.0305   4.0000                                         
     3  2  1.50        -9.5241   0.0000                                         
   Description                                                                  
     l       E           TYP  RCUT    TYP  RCUT                                 
     0    -23.9615318     23  1.200                                             
     0     -9.5240782     23  1.200                                             
     1     -9.0304911     23  1.520                                             
     1      8.1634956     23  1.520                                             
     2     -9.5240782      7  1.500                                             
  local pseudopotential read in
  partial core-charges read in
  partial kinetic energy density read in
  kinetic energy density of atom read in
  atomic valenz-charges read in
  non local Contribution for L=           0  read in
    real space projection operators read in
  non local Contribution for L=           0  read in
    real space projection operators read in
  non local Contribution for L=           1  read in
    real space projection operators read in
  non local Contribution for L=           1  read in
    real space projection operators read in
    PAW grid and wavefunctions read in

   number of l-projection  operators is LMAX  =           4
   number of lm-projection operators is LMMAX =           8

 POTCAR:    PAW_PBE Si 05Jan2001                  
   VRHFIN =Si: s2p2                                                             
   LEXCH  = PE                                                                  
   EATOM  =   103.0669 eV,    7.5752 Ry                                         
                                                                                
   TITEL  = PAW_PBE Si 05Jan2001                                                
   LULTRA =        F    use ultrasoft PP ?                                      
   IUNSCR =        1    unscreen: 0-lin 1-nonlin 2-no                           
   RPACOR =    1.500    partial core radius                                     
   POMASS =   28.085; ZVAL   =    4.000    mass and valenz                      
   RCORE  =    1.900    outmost cutoff radius                                   
   RWIGS  =    2.480; RWIGS  =    1.312    wigner-seitz radius (au A)           
   ENMAX  =  245.345; ENMIN  =  184.009 eV                                      
   ICORE  =        2    local potential                                         
   LCOR   =        T    correct aug charges                                     
   LPAW   =        T    paw PP                                                  
   EAUG   =  322.069                                                            
   DEXC   =    0.000                                                            
   RMAX   =    1.950    core radius for proj-oper                               
   RAUG   =    1.300    factor for augmentation sphere                          
   RDEP   =    1.993    radius for radial grids                                 
   RDEPT  =    1.837    core radius for aug-charge                              
                                                                                
   Atomic configuration                                                         
    6 entries                                                                   
     n  l   j            E        occ.                                          
     1  0  0.50     -1785.8828   2.0000                                         
     2  0  0.50      -139.4969   2.0000                                         
     2  1  1.50       -95.5546   6.0000                                         
     3  0  0.50       -10.8127   2.0000                                         
     3  1  0.50        -4.0811   2.0000                                         
     3  2  1.50        -4.0817   0.0000                                         
   Description                                                                  
     l       E           TYP  RCUT    TYP  RCUT                                 
     0    -10.8127223     23  1.900                                             
     0     -7.6451159     23  1.900                                             
     1     -4.0811372     23  1.900                                             
     1      2.4879257     23  1.900                                             
     2     -4.0817478      7  1.900                                             
  local pseudopotential read in
  partial core-charges read in
  partial kinetic energy density read in
  atomic valenz-charges read in
  non local Contribution for L=           0  read in
    real space projection operators read in
  non local Contribution for L=           0  read in
    real space projection operators read in
  non local Contribution for L=           1  read in
    real space projection operators read in
  non local Contribution for L=           1  read in
    real space projection operators read in
    PAW grid and wavefunctions read in

   number of l-projection  operators is LMAX  =           4
   number of lm-projection operators is LMMAX =           8

 POTCAR:    PAW_PBE W 08Apr2002                   
   VRHFIN =W : 6s5d                                                             
   LEXCH  = PE                                                                  
   EATOM  =   204.6103 eV,   15.0384 Ry                                         
                                                                                
   TITEL  = PAW_PBE W 08Apr2002                                                 
   LULTRA =        F    use ultrasoft PP ?                                      
   IUNSCR =        1    unscreen: 0-lin 1-nonlin 2-no                           
   RPACOR =    2.330    partial core radius                                     
   POMASS =  183.850; ZVAL   =    6.000    mass and valenz                      
   RCORE  =    2.750    outmost cutoff radius                                   
   RWIGS  =    2.750; RWIGS  =    1.455    wigner-seitz radius (au A)           
   ENMAX  =  223.057; ENMIN  =  167.293 eV                                      
   RCLOC  =    2.147    cutoff for local pot                                    
   LCOR   =        T    correct aug charges                                     
   LPAW   =        T    paw PP                                                  
   EAUG   =  373.438                                                            
   DEXC   =    0.000                                                            
   RMAX   =    2.801    core radius for proj-oper                               
   RAUG   =    1.300    factor for augmentation sphere                          
   RDEP   =    2.886    radius for radial grids                                 
   RDEPT  =    2.230    core radius for aug-charge                              
                                                                                
   Atomic configuration                                                         
   16 entries                                                                   
     n  l   j            E        occ.                                          
     1  0  0.50    -69465.5836   2.0000                                         
     2  0  0.50    -11986.2642   2.0000                                         
     2  1  1.50    -10479.8616   6.0000                                         
     3  0  0.50     -2759.0758   2.0000                                         
     3  1  1.50     -2313.1857   6.0000                                         
     3  2  2.50     -1801.1185  10.0000                                         
     4  0  0.50      -567.6791   2.0000                                         
     4  1  1.50      -421.4694   6.0000                                         
     4  2  2.50      -236.3473  10.0000                                         
     4  3  3.50       -31.2666  14.0000                                         
     5  0  0.50       -77.1085   2.0000                                         
     5  1  1.50       -41.3856   6.0000                                         
     5  2  2.50        -3.3185   5.0000                                         
     6  0  0.50        -5.1438   1.0000                                         
     6  1  0.50        -3.8096   0.0000                                         
     5  3  2.50        -1.3606   0.0000                                         
   Description                                                                  
     l       E           TYP  RCUT    TYP  RCUT                                 
     2     -3.3185288     23  2.500                                             
     2     -1.5965414     23  2.500                                             
     0     -5.1438054     23  2.500                                             
     0      4.9117504     23  2.500                                             
     1      2.7211652     23  2.750                                             
     1     27.2116520     23  2.750                                             
  local pseudopotential read in
  partial core-charges read in
  partial kinetic energy density read in
  atomic valenz-charges read in
  non local Contribution for L=           2  read in
    real space projection operators read in
  non local Contribution for L=           2  read in
    real space projection operators read in
  non local Contribution for L=           0  read in
    real space projection operators read in
  non local Contribution for L=           0  read in
    real space projection operators read in
  non local Contribution for L=           1  read in
    real space projection operators read in
  non local Contribution for L=           1  read in
    real space projection operators read in
    PAW grid and wavefunctions read in

   number of l-projection  operators is LMAX  =           6
   number of lm-projection operators is LMMAX =          18

 Optimization of the real space projectors (new method)

 maximal supplied QI-value         = 25.13
 optimisation between [QCUT,QGAM] = [ 11.31, 22.87] = [ 35.82,146.48] Ry 
 Optimized for a Real-space Cutoff    1.00 Angstroem

   l    n(q)    QCUT    max X(q) W(low)/X(q) W(high)/X(q)  e(spline) 
   0      7    11.310   115.676    0.43E-03    0.13E-02    0.19E-06
   0      7    11.310    87.132    0.43E-03    0.13E-02    0.18E-06
   1      6    11.310     4.429    0.42E-03    0.74E-03    0.11E-06
   1      6    11.310     2.733    0.34E-03    0.55E-03    0.92E-07
 Optimization of the real space projectors (new method)

 maximal supplied QI-value         = 34.20
 optimisation between [QCUT,QGAM] = [ 11.29, 22.57] = [ 35.68,142.71] Ry 
 Optimized for a Real-space Cutoff    1.16 Angstroem

   l    n(q)    QCUT    max X(q) W(low)/X(q) W(high)/X(q)  e(spline) 
   0      8    11.287    19.460    0.40E-03    0.73E-03    0.16E-06
   0      8    11.287    12.209    0.38E-03    0.70E-03    0.15E-06
   1      7    11.287     4.655    0.22E-03    0.25E-04    0.22E-06
 Optimization of the real space projectors (new method)

 maximal supplied QI-value         = 24.76
 optimisation between [QCUT,QGAM] = [ 11.39, 22.77] = [ 36.31,145.25] Ry 
 Optimized for a Real-space Cutoff    1.00 Angstroem

   l    n(q)    QCUT    max X(q) W(low)/X(q) W(high)/X(q)  e(spline) 
   0      7    11.387    20.381    0.39E-03    0.13E-02    0.15E-06
   0      7    11.387    15.268    0.42E-03    0.14E-02    0.17E-06
   1      6    11.387     5.964    0.41E-03    0.11E-02    0.17E-06
   1      6    11.387     5.382    0.39E-03    0.87E-03    0.15E-06
 Optimization of the real space projectors (new method)

 maximal supplied QI-value         = 19.84
 optimisation between [QCUT,QGAM] = [ 11.31, 22.82] = [ 35.82,145.81] Ry 
 Optimized for a Real-space Cutoff    1.16 Angstroem

   l    n(q)    QCUT    max X(q) W(low)/X(q) W(high)/X(q)  e(spline) 
   0      8    11.310   159.560    0.27E-03    0.30E-03    0.39E-07
   0      8    11.310   115.863    0.27E-03    0.30E-03    0.38E-07
   1      7    11.310    88.339    0.28E-03    0.28E-03    0.77E-07
   1      7    11.310    48.592    0.27E-03    0.27E-03    0.74E-07
 Optimization of the real space projectors (new method)

 maximal supplied QI-value         = 13.61
 optimisation between [QCUT,QGAM] = [ 11.43, 22.86] = [ 36.58,146.31] Ry 
 Optimized for a Real-space Cutoff    1.56 Angstroem

   l    n(q)    QCUT    max X(q) W(low)/X(q) W(high)/X(q)  e(spline) 
   2     10    11.429   130.855    0.22E-03    0.64E-03    0.11E-05
   2     10    11.429   114.007    0.22E-03    0.64E-03    0.11E-05
   0     11    11.429    84.709    0.39E-04    0.67E-04    0.23E-06
   0     11    11.429    49.163    0.35E-04    0.62E-04    0.21E-06
   1     10    11.429    15.765    0.84E-04    0.15E-03    0.24E-06
   1     10    11.429    10.638    0.58E-04    0.12E-03    0.19E-06

 ----------------------------------------------------------------------------- 
|                                                                             |
|  ADVICE TO THIS USER RUNNING 'VASP/VAMP'   (HEAR YOUR MASTER'S VOICE ...):  |
|                                                                             |
|      You enforced a specific xc-type in the INCAR file,                     |
|      a different type was found on the POTCAR file                          |
|          I HOPE YOU KNOW, WHAT YOU ARE  DOING                               |
|                                                                             |
 ----------------------------------------------------------------------------- 

  PAW_PBE C 08Apr2002                   :
 energy of atom  1       EATOM= -147.1560
 kinetic energy error for atom=    0.0076 (will be added to EATOM!!)
  PAW_PBE H 15Jun2001                   :
 energy of atom  2       EATOM=  -12.4884
 kinetic energy error for atom=    0.0020 (will be added to EATOM!!)
  PAW_PBE O 08Apr2002                   :
 energy of atom  3       EATOM= -432.3788
 kinetic energy error for atom=    0.0224 (will be added to EATOM!!)
  PAW_PBE Si 05Jan2001                  :
 energy of atom  4       EATOM= -103.0669
 kinetic energy error for atom=    0.0006 (will be added to EATOM!!)
  PAW_PBE W 08Apr2002                   :
 energy of atom  5       EATOM= -204.6103
 kinetic energy error for atom=    0.0017 (will be added to EATOM!!)


 POSCAR: C  H  O  Si W                           
  positions in direct lattice
  velocities in cartesian coordinates
 exchange correlation table for  LEXCH =        9
   RHO(1)=    0.500       N(1)  =     2000
   RHO(2)=  100.500       N(2)  =     4000

 VTST: version 3.2, (02/03/18)

 CHAIN: initializing optimizer
 
 OPT: Using VASP QUASI-newton optimizer
 CHAIN: Read ICHAIN            0

 POSCAR: C  H  O  Si W                           
  positions in direct lattice
  velocities in cartesian coordinates



--------------------------------------------------------------------------------------------------------


 ion  position               nearest neighbor table
   1  0.561  0.460  0.722-  49 1.11   3 1.51 276 1.91
   2  0.509  0.562  0.810-  54 1.09  50 1.09   4 1.34
   3  0.580  0.394  0.752-  52 1.10  51 1.10  53 1.11   1 1.51
   4  0.518  0.627  0.788-  56 1.09  55 1.09   2 1.34
   5  0.761  0.103  0.651- 131 0.97
   6  0.926  0.279  0.356-  79 0.98
   7  0.793  0.207  0.373- 114 0.97
   8  0.975  0.944  0.325- 123 0.97
   9  0.626  0.963  0.375- 125 0.98
  10  0.821  0.995  0.369- 143 0.97
  11  0.750  0.141  0.458- 181 0.98
  12  0.915  0.249  0.509- 186 0.97
  13  0.583  0.304  0.306- 191 0.97
  14  0.891  0.335  0.616-  97 0.98
  15  0.585  0.360  0.614- 142 0.97
  16  0.593  0.871  0.578- 184 0.99
  17  0.034  0.338  0.652- 190 0.97
  18  0.935  0.420  0.454- 179 0.98
  19  0.746  0.530  0.422-  93 1.00
  20  0.798  0.382  0.635- 171 0.97
  21  0.591  0.569  0.378- 105 0.99
  22  0.718  0.646  0.383- 128 0.99
  23  0.841  0.542  0.420- 134 0.98
  24  0.005  0.604  0.358- 139 0.97
  25  0.828  0.712  0.468- 180 0.99
  26  0.878  0.599  0.721-  59 0.97
  27  0.520  0.986  0.422- 141 0.99
  28  0.223  0.980  0.393- 182 1.00
  29  0.216  0.238  0.319- 197 0.99
  30  0.158  0.330  0.279- 188 0.97
  31  0.342  0.156  0.331- 189 0.98
  32  0.223  0.046  0.323- 196 0.97
  33  0.512  0.823  0.547- 199 0.97
  34  0.383  0.243  0.647-  84 0.97
  35  0.244  0.093  0.598- 135 0.98
  36  0.315  0.487  0.442-  58 0.99
  37  0.409  0.439  0.406- 147 0.98
  38  0.398  0.793  0.389- 185 0.97
  39  0.244  0.655  0.294- 193 0.97
  40  0.312  0.418  0.369- 194 0.98
  41  0.405  0.584  0.339- 195 0.97
  42  0.139  0.488  0.352- 187 0.98
  43  0.593  0.698  0.352-  88 0.97
  44  0.469  0.861  0.444- 198 0.99
  45  0.122  0.323  0.612- 107 0.97
  46  0.073  0.665  0.646- 138 0.97
  47  0.243  0.384  0.682- 183 0.97
  48  0.244  0.814  0.669- 192 0.97
  49  0.594  0.504  0.717-   1 1.11
  50  0.465  0.542  0.817-   2 1.09
  51  0.603  0.409  0.787-   3 1.10
  52  0.543  0.359  0.762-   3 1.10
  53  0.609  0.360  0.730-   3 1.11
  54  0.544  0.525  0.821-   2 1.09
  55  0.562  0.646  0.780-   4 1.09
  56  0.484  0.663  0.776-   4 1.09
  57  0.369  0.648  0.439- 230 1.66 265 1.68
  58  0.347  0.504  0.420-  36 0.99 265 1.67
  59  0.861  0.566  0.697-  26 0.97 236 1.64
  60  0.349  0.954  0.531- 241 1.68 274 1.70
  61  0.033  0.933  0.529- 256 1.63 267 1.66
  62  0.636  0.079  0.489- 234 1.60 223 1.65
  63  0.069  0.052  0.395- 222 1.64 214 1.65
  64  0.452  0.130  0.421- 239 1.65 220 1.65
  65  0.806  0.214  0.483- 238 1.67 235 1.69
  66  0.973  0.182  0.599- 216 1.63 246 1.65
  67  0.275  0.299  0.449- 262 1.65 272 1.66
  68  0.556  0.775  0.442- 243 1.51 270 1.66
  69  0.393  0.968  0.620- 260 1.65 274 1.66
  70  0.178  0.350  0.405- 262 1.66 237 1.67
  71  0.867  0.684  0.637- 240 1.64 236 1.65
  72  0.866  0.967  0.467- 232 1.60 247 1.65
  73  0.301  0.761  0.458- 230 1.65 244 1.67
  74  0.422  0.261  0.380- 239 1.67 259 1.67
  75  0.811  0.465  0.520- 266 1.63 213 1.64
  76  0.984  0.073  0.521- 256 1.68 216 1.69
  77  0.520  0.453  0.621- 275 1.66 276 1.96
  78  0.035  0.920  0.429- 267 1.64 214 1.65
  79  0.963  0.303  0.351-   6 0.98 215 1.65
  80  0.070  0.336  0.376- 215 1.64 237 1.65
  81  0.208  0.729  0.395- 244 1.66 254 1.67
  82  0.039  0.419  0.499- 269 1.64 242 1.65
  83  0.239  0.286  0.588- 250 1.63 227 1.63
  84  0.398  0.193  0.644-  34 0.97 221 1.64
  85  0.456  0.558  0.583- 275 1.68 252 1.68
  86  0.910  0.749  0.557- 240 1.64 219 1.65
  87  0.869  0.108  0.442- 247 1.64 235 1.65
  88  0.573  0.667  0.376-  43 0.97 243 1.68
  89  0.142  0.159  0.376- 268 1.65 222 1.65
  90  0.350  0.766  0.607- 212 1.62 253 1.64
  91  0.911  0.845  0.483- 232 1.62 219 1.66
  92  0.061  0.537  0.442- 269 1.66 211 1.67
  93  0.708  0.555  0.420-  19 1.00 225 1.67
  94  0.075  0.817  0.483- 267 1.50 249 1.65
  95  0.700  0.828  0.433- 224 1.53 257 1.65
  96  0.730  0.049  0.543- 223 1.64 258 1.64
  97  0.919  0.302  0.632-  14 0.98 246 1.63
  98  0.735  0.853  0.613- 231 1.66 228 1.68
  99  0.625  0.527  0.486- 233 1.58 225 1.68
 100  0.557  0.630  0.467- 243 1.52 233 1.62
 101  0.426  0.243  0.555- 264 1.68 221 1.68
 102  0.978  0.728  0.477- 249 1.65 219 1.65
 103  0.654  0.594  0.634- 271 1.64 217 1.67
 104  0.397  0.745  0.516- 212 1.66 230 1.67
 105  0.603  0.518  0.386-  21 0.99 225 1.65
 106  0.719  0.631  0.557- 255 1.63 271 1.64
 107  0.147  0.364  0.620-  45 0.97 227 1.64
 108  0.066  0.549  0.542- 269 1.63 273 1.64
 109  0.819  0.885  0.537- 232 1.65 231 1.67
 110  0.828  0.355  0.452- 238 1.65 213 1.65
 111  0.527  0.298  0.532- 264 1.62 245 1.63
 112  0.737  0.499  0.595- 271 1.65 266 1.66
 113  0.557  0.172  0.395- 251 1.59 220 1.64
 114  0.806  0.256  0.383-   7 0.97 238 1.67
 115  0.237  0.953  0.508- 241 1.59 226 1.67
 116  0.693  0.777  0.541- 255 1.63 228 1.64
 117  0.924  0.950  0.553- 256 1.65 232 1.65
 118  0.526  0.318  0.399- 251 1.45 259 1.66
 119  0.470  0.986  0.547- 260 1.69 261 1.70
 120  0.838  0.095  0.540- 235 1.66 258 1.66
 121  0.538  0.116  0.486- 234 1.61 220 1.67
 122  0.350  0.187  0.440- 272 1.63 239 1.65
 123  0.012  0.962  0.335-   8 0.97 214 1.65
 124  0.463  0.581  0.678- 252 1.66 276 1.97
 125  0.655  0.925  0.379-   9 0.98 224 1.66
 126  0.076  0.686  0.436- 211 1.65 249 1.66
 127  0.450  0.402  0.552- 275 1.67 264 1.70
 128  0.719  0.700  0.380-  22 0.99 257 1.65
 129  0.447  0.698  0.603- 212 1.64 252 1.64
 130  0.753  0.709  0.476- 255 1.62 257 1.69
 131  0.779  0.121  0.621-   5 0.97 258 1.64
 132  0.993  0.308  0.448- 242 1.66 215 1.68
 133  0.530  0.507  0.526- 275 1.64 233 1.65
 134  0.817  0.499  0.423-  23 0.98 213 1.69
 135  0.236  0.145  0.605-  35 0.98 250 1.62
 136  0.204  0.831  0.471- 226 1.50 244 1.63
 137  0.240  0.558  0.523- 229 1.65 218 1.66
 138  0.061  0.625  0.624-  46 0.97 273 1.63
 139  0.046  0.602  0.354-  24 0.97 211 1.65
 140  0.801  0.979  0.606- 231 1.66 258 1.69
 141  0.538  0.028  0.405-  27 0.99 220 1.66
 142  0.604  0.314  0.605-  15 0.97 245 1.64
 143  0.862  0.004  0.369-  10 0.97 247 1.66
 144  0.095  0.149  0.467- 248 1.62 222 1.65
 145  0.171  0.204  0.531- 248 1.61 250 1.63
 146  0.641  0.704  0.455- 243 1.65 257 1.66
 147  0.437  0.410  0.386-  37 0.98 259 1.66
 148  0.575  0.057  0.571- 261 1.62 234 1.65
 149  0.151  0.593  0.389- 254 1.68 211 1.68
 150  0.268  0.602  0.392- 265 1.65 254 1.67
 151  0.440  0.322  0.470- 264 1.64 259 1.69
 152  0.238  0.159  0.430- 268 1.65 272 1.67
 153  0.073  0.150  0.563- 248 1.64 216 1.64
 154  0.845  0.544  0.600- 236 1.66 266 1.66
 155  0.621  0.280  0.411- 263 1.65 251 1.66
 156  0.603  0.892  0.467- 270 1.29 224 1.67
 157  0.031  0.195  0.389- 215 1.66 222 1.66
 158  0.607  0.195  0.548- 234 1.63 245 1.64
 159  0.133  0.938  0.479- 267 1.65 226 1.66
 160  0.080  0.280  0.512- 242 1.64 248 1.65
 161  0.373  0.101  0.570- 274 1.63 221 1.69
 162  0.067  0.697  0.536- 249 1.63 273 1.63
 163  0.666  0.415  0.430- 225 1.65 263 1.65
 164  0.799  0.729  0.564- 255 1.61 240 1.63
 165  0.704  0.957  0.470- 223 1.65 224 1.66
 166  0.596  0.630  0.554- 233 1.62 217 1.63
 167  0.723  0.294  0.452- 238 1.63 263 1.64
 168  0.978  0.314  0.547- 242 1.64 246 1.67
 169  0.158  0.630  0.570- 229 1.63 273 1.65
 170  0.633  0.327  0.508- 245 1.63 263 1.65
 171  0.820  0.396  0.605-  20 0.97 266 1.65
 172  0.959  0.027  0.417- 247 1.64 214 1.65
 173  0.282  0.195  0.519- 272 1.63 250 1.65
 174  0.249  0.443  0.461- 218 1.66 262 1.71
 175  0.271  0.848  0.568- 241 1.64 253 1.65
 176  0.204  0.686  0.487- 229 1.63 244 1.66
 177  0.147  0.476  0.493- 218 1.63 269 1.65
 178  0.225  0.423  0.557- 218 1.61 227 1.64
 179  0.911  0.453  0.474-  18 0.98 213 1.65
 180  0.870  0.705  0.464-  25 0.99 219 1.65
 181  0.738  0.093  0.445-  11 0.98 223 1.66
 182  0.222  0.930  0.408-  28 1.00 226 1.64
 183  0.252  0.402  0.649-  47 0.97 227 1.65
 184  0.631  0.883  0.593-  16 0.99 228 1.62
 185  0.410  0.789  0.423-  38 0.97 230 1.68
 186  0.918  0.196  0.508-  12 0.97 235 1.65
 187  0.133  0.444  0.332-  42 0.98 237 1.65
 188  0.155  0.304  0.311-  30 0.97 237 1.69
 189  0.373  0.131  0.348-  31 0.98 239 1.66
 190  0.035  0.292  0.633-  17 0.97 246 1.66
 191  0.573  0.257  0.320-  13 0.97 251 1.66
 192  0.244  0.769  0.650-  48 0.97 253 1.64
 193  0.207  0.648  0.310-  39 0.97 254 1.65
 194  0.275  0.392  0.367-  40 0.98 262 1.66
 195  0.365  0.598  0.342-  41 0.97 265 1.67
 196  0.226  0.056  0.358-  32 0.97 268 1.69
 197  0.241  0.196  0.329-  29 0.99 268 1.66
 198  0.501  0.892  0.455-  44 0.99 270 1.60
 199  0.551  0.827  0.534-  33 0.97 270 1.67
 200  0.545  0.648  0.635- 217 1.65 252 1.67
 201  0.479  0.119  0.596- 261 1.65 221 1.65
 202  0.263  0.693  0.569- 253 1.65 229 1.65
 203  0.445  0.842  0.583- 260 1.66 212 1.69
 204  0.766  0.617  0.649- 271 1.65 236 1.66
 205  0.845  0.832  0.623- 240 1.66 231 1.68
 206  0.640  0.739  0.620- 217 1.67 228 1.71
 207  0.008  0.033  0.603- 256 1.69 216 1.69
 208  0.285  0.999  0.594- 274 1.69 241 1.70
 209  0.505  0.969  0.629- 260 1.69 261 1.70
 210  0.447  0.411  0.709- 276 1.72
 211  0.083  0.606  0.406- 139 1.65 126 1.65  92 1.67 149 1.68 269 3.13
 212  0.409  0.762  0.576-  90 1.62 129 1.64 104 1.66 203 1.69 253 3.07
 213  0.842  0.441  0.468-  75 1.64 110 1.65 179 1.65 134 1.69
 214  0.017  0.990  0.394-  63 1.65 172 1.65  78 1.65 123 1.65 267 3.11 222 3.13
 215  0.015  0.284  0.391-  80 1.64  79 1.65 157 1.66 132 1.68 242 3.11 222 3.11
 216  0.009  0.115  0.573-  66 1.63 153 1.64  76 1.69 207 1.69 256 2.39 248 3.05 246 3.07
 217  0.609  0.657  0.611- 166 1.63 200 1.65 103 1.67 206 1.67 271 2.87
 218  0.214  0.476  0.510- 178 1.61 177 1.63 137 1.66 174 1.66 229 3.10 262 3.14
 219  0.915  0.756  0.496- 102 1.65 180 1.65  86 1.65  91 1.66 232 2.99 240 3.03
 220  0.521  0.110  0.426- 113 1.64  64 1.65 141 1.66 121 1.67 251 3.08 234 3.12
 221  0.419  0.166  0.589-  84 1.64 201 1.65 101 1.68 161 1.69 274 3.14 261 3.15
 222  0.083  0.139  0.407-  63 1.64 144 1.65  89 1.65 157 1.66 215 3.11 214 3.13 268 3.14
 223  0.702  0.045  0.487-  96 1.64 165 1.65  62 1.65 181 1.66 234 3.09 224 3.10 258 3.15
 224  0.665  0.898  0.437-  95 1.53 165 1.66 125 1.66 156 1.67 270 2.83 257 3.06 223 3.10
 225  0.650  0.504  0.430- 105 1.65 163 1.65  93 1.67  99 1.68 233 3.06
 226  0.198  0.912  0.464- 136 1.50 182 1.64 159 1.66 115 1.67 244 3.01 241 3.05 267 3.07
 227  0.214  0.366  0.604-  83 1.63 178 1.64 107 1.64 183 1.65
 228  0.674  0.813  0.594- 184 1.62 116 1.64  98 1.68 206 1.71 255 2.90
 229  0.217  0.641  0.538- 169 1.63 176 1.63 202 1.65 137 1.65 244 3.09 218 3.10 273 3.12
 230  0.369  0.735  0.459-  73 1.65  57 1.66 104 1.67 185 1.68
 231  0.797  0.888  0.596- 140 1.66  98 1.66 109 1.67 205 1.68 240 2.86 232 2.99 258 3.15
 232  0.880  0.912  0.512-  72 1.60  91 1.62 109 1.65 117 1.65 219 2.99 231 2.99 256 3.05 247 3.13

 233  0.575  0.573  0.511-  99 1.58 100 1.62 166 1.62 133 1.65 243 3.01 225 3.06 275 3.12
 234  0.590  0.115  0.525-  62 1.60 121 1.61 158 1.63 148 1.65 261 2.86 223 3.09 245 3.12 220 3.12

 235  0.858  0.152  0.495- 186 1.65  87 1.65 120 1.66  65 1.69 247 3.07 238 3.15
 236  0.836  0.604  0.646-  59 1.64  71 1.65 154 1.66 204 1.66 271 2.93 240 3.00 266 3.01
 237  0.134  0.360  0.357- 187 1.65  80 1.65  70 1.67 188 1.69 262 3.11
 238  0.791  0.280  0.442- 167 1.63 110 1.65 114 1.67  65 1.67 235 3.15
 239  0.399  0.177  0.396-  64 1.65 122 1.65 189 1.66  74 1.67 259 3.07
 240  0.856  0.750  0.597- 164 1.63  86 1.64  71 1.64 205 1.66 231 2.86 236 3.00 219 3.03
 241  0.283  0.933  0.550- 115 1.59 175 1.64  60 1.68 208 1.70 274 2.38 226 3.05
 242  0.023  0.330  0.502- 160 1.64 168 1.64  82 1.65 132 1.66 246 3.11 215 3.11 248 3.13
 243  0.575  0.695  0.436-  68 1.51 100 1.52 146 1.65  88 1.68 233 3.01 270 3.06 257 3.10
 244  0.230  0.753  0.452- 136 1.63 176 1.66  81 1.66  73 1.67 254 2.97 226 3.01 229 3.09
 245  0.593  0.284  0.548- 170 1.63 111 1.63 142 1.64 158 1.64 234 3.12
 246  0.975  0.272  0.603-  97 1.63  66 1.65 190 1.66 168 1.67 216 3.07 242 3.11
 247  0.889  0.025  0.424-  87 1.64 172 1.64  72 1.65 143 1.66 235 3.07 232 3.13
 248  0.105  0.195  0.518- 145 1.61 144 1.62 153 1.64 160 1.65 216 3.05 242 3.13
 249  0.048  0.733  0.483- 162 1.63 102 1.65  94 1.65 126 1.66 267 3.05 273 3.14
 250  0.232  0.205  0.561- 135 1.62  83 1.63 145 1.63 173 1.65 272 3.03
 251  0.561  0.258  0.381- 118 1.45 113 1.59 155 1.66 191 1.66 259 2.87 220 3.08
 252  0.478  0.623  0.624- 129 1.64 124 1.66 200 1.67  85 1.68 275 3.03 276 3.12
 253  0.281  0.769  0.598-  90 1.64 192 1.64 202 1.65 175 1.65 212 3.07
 254  0.209  0.643  0.372- 193 1.65 150 1.67  81 1.67 149 1.68 244 2.97
 255  0.740  0.711  0.536- 164 1.61 130 1.62 106 1.63 116 1.63 228 2.90 257 2.90 271 3.07
 256  0.987  0.991  0.550-  61 1.63 117 1.65  76 1.68 207 1.69 216 2.39 232 3.05
 257  0.703  0.737  0.434-  95 1.65 128 1.65 146 1.66 130 1.69 255 2.90 224 3.06 243 3.10
 258  0.788  0.059  0.577-  96 1.64 131 1.64 120 1.66 140 1.69 223 3.15 231 3.15
 259  0.456  0.328  0.409- 147 1.66 118 1.66  74 1.67 151 1.69 251 2.87 239 3.07
 260  0.451  0.932  0.595-  69 1.65 203 1.66 119 1.69 209 1.69 261 2.37 274 2.76
 261  0.509  0.038  0.586- 148 1.62 201 1.65 119 1.70 209 1.70 260 2.37 234 2.86 221 3.15
 262  0.244  0.370  0.421-  67 1.65  70 1.66 194 1.66 174 1.71 237 3.11 218 3.14
 263  0.659  0.330  0.450- 167 1.64 155 1.65 163 1.65 170 1.65
 264  0.460  0.316  0.529- 111 1.62 151 1.64 101 1.68 127 1.70
 265  0.337  0.590  0.399- 150 1.65 195 1.67  58 1.67  57 1.68
 266  0.803  0.476  0.580-  75 1.63 171 1.65 154 1.66 112 1.66 271 2.91 236 3.01
 267  0.069  0.899  0.481-  94 1.50  78 1.64 159 1.65  61 1.66 249 3.05 226 3.07 214 3.11
 268  0.212  0.144  0.374-  89 1.65 152 1.65 197 1.66 196 1.69 272 3.12 222 3.14
 269  0.078  0.494  0.495- 108 1.63  82 1.64 177 1.65  92 1.66 273 3.09 211 3.13
 270  0.558  0.852  0.475- 156 1.29 198 1.60  68 1.66 199 1.67 224 2.83 243 3.06
 271  0.718  0.585  0.610- 103 1.64 106 1.64 204 1.65 112 1.65 217 2.87 266 2.91 236 2.93 255 3.07

 272  0.287  0.210  0.459- 173 1.63 122 1.63  67 1.66 152 1.67 250 3.03 268 3.12
 273  0.088  0.626  0.568- 162 1.63 138 1.63 108 1.64 169 1.65 269 3.09 229 3.12 249 3.14
 274  0.354  0.015  0.579- 161 1.63  69 1.66 208 1.69  60 1.70 241 2.38 260 2.76 221 3.14
 275  0.487  0.477  0.569- 133 1.64  77 1.66 127 1.67  85 1.68 252 3.03 233 3.12 276 3.18
 276  0.492  0.479  0.687- 210 1.72   1 1.91  77 1.96 124 1.97 252 3.12 275 3.18

  LATTYP: Found a simple orthorhombic cell.
 ALAT       =    18.1212369514
 B/A-ratio  =     1.2919258579
 C/A-ratio  =     1.4835282260
  
  Lattice vectors:
  
 A1 = (   0.0000000000, -18.1212369514,   0.0000000000)
 A2 = ( -23.4112945954,   0.0000000000,   0.0000000000)
 A3 = (   0.0000000000,   0.0000000000, -26.8833665073)


Analysis of symmetry for initial positions (statically):
=====================================================================
 Subroutine PRICEL returns:
 Original cell was already a primitive cell.
 

 Routine SETGRP: Setting up the symmetry group for a 
 simple orthorhombic supercell.


 Subroutine GETGRP returns: Found  1 space group operations
 (whereof  1 operations were pure point group operations)
 out of a pool of  8 trial point group operations.


The static configuration has the point symmetry C_1 .


Analysis of symmetry for dynamics (positions and initial velocities):
=====================================================================
 Subroutine PRICEL returns:
 Original cell was already a primitive cell.
 

 Routine SETGRP: Setting up the symmetry group for a 
 simple orthorhombic supercell.


 Subroutine GETGRP returns: Found  1 space group operations
 (whereof  1 operations were pure point group operations)
 out of a pool of  8 trial point group operations.


The dynamic configuration has the point symmetry C_1 .


Analysis of constrained symmetry for selective dynamics:
=====================================================================
 Subroutine PRICEL returns:
 Original cell was already a primitive cell.
 

 Routine SETGRP: Setting up the symmetry group for a 
 simple orthorhombic supercell.


 Subroutine GETGRP returns: Found  1 space group operations
 (whereof  1 operations were pure point group operations)
 out of a pool of  8 trial point group operations.


The constrained configuration has the point symmetry C_1 .


 Subroutine INISYM returns: Found  1 space group operations
 (whereof  1 operations are pure point group operations),
 and found     1 'primitive' translations



 KPOINTS: KPOINTS created by Atomic Simulation Env

Automatic generation of k-mesh.
Space group operators:
 irot       det(A)        alpha          n_x          n_y          n_z        tau_x        tau_y        tau_z
    1     1.000000     0.000000     1.000000     0.000000     0.000000     0.000000     0.000000     0.000000
 
 Subroutine IBZKPT returns following result:
 ===========================================
 
 Found      5 irreducible k-points:
 
 Following reciprocal coordinates:
            Coordinates               Weight
  0.000000  0.000000  0.000000      1.000000
  0.333333  0.000000  0.000000      2.000000
  0.000000  0.333333  0.000000      2.000000
  0.333333  0.333333  0.000000      2.000000
 -0.333333  0.333333  0.000000      2.000000
 
 Following cartesian coordinates:
            Coordinates               Weight
  0.000000  0.000000  0.000000      1.000000
  0.014238  0.000000  0.000000      2.000000
  0.000000  0.018395  0.000000      2.000000
  0.014238  0.018395  0.000000      2.000000
 -0.014238  0.018395  0.000000      2.000000
 


--------------------------------------------------------------------------------------------------------




 Dimension of arrays:
   k-points           NKPTS =      5   k-points in BZ     NKDIM =      5   number of bands    NBANDS=    768
   number of dos      NEDOS =    301   number of ions     NIONS =    276
   non local maximal  LDIM  =      6   non local SUM 2l+1 LMDIM =     18
   total plane-waves  NPLWV = ******
   max r-space proj   IRMAX =   2748   max aug-charges    IRDMAX=   9808
   dimension x,y,z NGX =   128 NGY =  100 NGZ =  150
   dimension x,y,z NGXF=   256 NGYF=  200 NGZF=  300
   support grid    NGXF=   256 NGYF=  200 NGZF=  300
   ions per type =               4  52 154  65   1
   NGX,Y,Z   is equivalent  to a cutoff of   9.09,  9.17,  9.28 a.u.
   NGXF,Y,Z  is equivalent  to a cutoff of  18.18, 18.35, 18.55 a.u.

 SYSTEM =  unknown system                          
 POSCAR =  C  H  O  Si W                           

 Startparameter for this run:
   NWRITE =      2    write-flag & timer
   PREC   = normal    normal or accurate (medium, high low for compatibility)
   ISTART =      0    job   : 0-new  1-cont  2-samecut
   ICHARG =      2    charge: 1-file 2-atom 10-const
   ISPIN  =      1    spin polarized calculation?
   LNONCOLLINEAR =      F non collinear calculations
   LSORBIT =      F    spin-orbit coupling
   INIWAV =      1    electr: 0-lowe 1-rand  2-diag
   LASPH  =      T    aspherical Exc in radial PAW
   METAGGA=      F    non-selfconsistent MetaGGA calc.

 Electronic Relaxation 1
   ENCUT  =  500.0 eV  36.75 Ry    6.06 a.u.  42.68 33.04 49.01*2*pi/ulx,y,z
   ENINI  =  500.0     initial cutoff
   ENAUG  =  644.9 eV  augmentation charge cutoff
   NELM   =     60;   NELMIN=  2; NELMDL=  0     # of ELM steps 
   EDIFF  = 0.1E-03   stopping-criterion for ELM
   LREAL  =      T    real-space projection
   NLSPLINE    = F    spline interpolate recip. space projectors
   LCOMPAT=      F    compatible to vasp.4.4
   GGA_COMPAT  = T    GGA compatible to vasp.4.4-vasp.4.6
   LMAXPAW     = -100 max onsite density
   LMAXMIX     =    2 max onsite mixed and CHGCAR
   VOSKOWN=      0    Vosko Wilk Nusair interpolation
   ROPT   =   -0.00050  -0.00050  -0.00050  -0.00050
   ROPT   =   -0.00050
 Ionic relaxation
   EDIFFG = -.5E-01   stopping-criterion for IOM
   NSW    =    150    number of steps for IOM
   NBLOCK =      1;   KBLOCK =    150    inner block; outer block 
   IBRION =      1    ionic relax: 0-MD 1-quasi-New 2-CG
   NFREE  =      0    steps in history (QN), initial steepest desc. (CG)
   ISIF   =      0    stress and relaxation
   IWAVPR =     11    prediction:  0-non 1-charg 2-wave 3-comb
   ISYM   =      2    0-nonsym 1-usesym 2-fastsym
   LCORR  =      T    Harris-Foulkes like correction to forces

   POTIM  = 0.5000    time-step for ionic-motion
   TEIN   =    0.0    initial temperature
   TEBEG  =    0.0;   TEEND  =   0.0 temperature during run
   SMASS  =  -3.00    Nose mass-parameter (am)
   estimated Nose-frequenzy (Omega)   =  0.10E-29 period in steps =****** mass=  -0.125E-25a.u.
   SCALEE = 1.0000    scale energy and forces
   NPACO  =    256;   APACO  = 16.0  distance and # of slots for P.C.
   PSTRESS=    0.0 pullay stress

  Mass of Ions in am
   POMASS =  12.01  1.00 16.00 28.09183.85
  Ionic Valenz
   ZVAL   =   4.00  1.00  6.00  4.00  6.00
  Atomic Wigner-Seitz radii
   RWIGS  =  -1.00 -1.00 -1.00 -1.00 -1.00
  virtual crystal weights 
   VCA    =   1.00  1.00  1.00  1.00  1.00
   NELECT =    1258.0000    total number of electrons
   NUPDOWN=      -1.0000    fix difference up-down

 DOS related values:
   EMIN   =  10.00;   EMAX   =-10.00  energy-range for DOS
   EFERMI =   0.00
   ISMEAR =     0;   SIGMA  =   0.20  broadening in eV -4-tet -1-fermi 0-gaus

 Electronic relaxation 2 (details)
   IALGO  =     68    algorithm
   LDIAG  =      T    sub-space diagonalisation (order eigenvalues)
   LSUBROT=      F    optimize rotation matrix (better conditioning)
   TURBO    =      0    0=normal 1=particle mesh
   IRESTART =      0    0=no restart 2=restart with 2 vectors
   NREBOOT  =      0    no. of reboots
   NMIN     =      0    reboot dimension
   EREF     =   0.00    reference energy to select bands
   IMIX   =      4    mixing-type and parameters
     AMIX     =   0.40;   BMIX     =  1.00
     AMIX_MAG =   1.60;   BMIX_MAG =  1.00
     AMIN     =   0.10
     WC   =   100.;   INIMIX=   1;  MIXPRE=   1;  MAXMIX= -45

 Intra band minimization:
   WEIMIN = 0.0010     energy-eigenvalue tresh-hold
   EBREAK =  0.33E-07  absolut break condition
   DEPER  =   0.30     relativ break condition  

   TIME   =   0.40     timestep for ELM

  volume/ion in A,a.u.               =      41.32       278.86
  Fermi-wavevector in a.u.,A,eV,Ry     =   0.785120  1.483662  8.386815  0.616413
  Thomas-Fermi vector in A             =   1.889391

 Write flags
   LWAVE        =      F    write WAVECAR
   LDOWNSAMPLE  =      F    k-point downsampling of WAVECAR
   LCHARG       =      F    write CHGCAR
   LVTOT        =      F    write LOCPOT, total local potential
   LVHAR        =      F    write LOCPOT, Hartree potential only
   LELF         =      F    write electronic localiz. function (ELF)
   LORBIT       =      0    0 simple, 1 ext, 2 COOP (PROOUT), +10 PAW based schemes


 Dipole corrections
   LMONO  =      F    monopole corrections only (constant potential shift)
   LDIPOL =      T    correct potential (dipole corrections)
   IDIPOL =      3    1-x, 2-y, 3-z, 4-all directions 
   EPSILON=  1.0000000 bulk dielectric constant

 Exchange correlation treatment:
   GGA     =    RP    GGA type
   LEXCH   =     9    internal setting for exchange type
   VOSKOWN=      0    Vosko Wilk Nusair interpolation
   LHFCALC =     F    Hartree Fock is set to
   LHFONE  =     F    Hartree Fock one center treatment
   AEXX    =    0.0000 exact exchange contribution

 Linear response parameters
   LEPSILON=     F    determine dielectric tensor
   LRPA    =     F    only Hartree local field effects (RPA)
   LNABLA  =     F    use nabla operator in PAW spheres
   LVEL    =     F    velocity operator in full k-point grid
   LINTERFAST=   F  fast interpolation
   KINTER  =     0    interpolate to denser k-point grid
   CSHIFT  =0.1000    complex shift for real part using Kramers Kronig
   OMEGAMAX=  -1.0    maximum frequency
   DEG_THRESHOLD= 0.2000000E-02 threshold for treating states as degnerate
   RTIME   =   -0.100 relaxation time in fs
  (WPLASMAI=    0.000 imaginary part of plasma frequency in eV, 0.658/RTIME)
   DFIELD  = 0.0000000 0.0000000 0.0000000 field for delta impulse in time

 Orbital magnetization related:
   ORBITALMAG=     F  switch on orbital magnetization
   LCHIMAG   =     F  perturbation theory with respect to B field
   DQ        =  0.001000  dq finite difference perturbation B field
   LLRAUG    =     F  two centre corrections for induced B field



--------------------------------------------------------------------------------------------------------


 quasi-Newton-method for relaxation of ions
   using selective dynamics as specified on POSCAR
 charge density and potential will be updated during run
 non-spin polarized calculation
 RMM-DIIS sequential band-by-band and
  variant of blocked Davidson during initial phase
 perform sub-space diagonalisation
    before iterative eigenvector-optimisation
 modified Broyden-mixing scheme, WC =      100.0
 initial mixing is a Kerker type mixing with AMIX =  0.4000 and BMIX =      1.0000
 Hartree-type preconditioning will be used
 using additional bands          139
 real space projection scheme for non local part
 use partial core corrections
 calculate Harris-corrections to forces   (improved forces if not selfconsistent)
 use gradient corrections 
 use of overlap-Matrix (Vanderbilt PP)
 Gauss-broadening in eV      SIGMA  =   0.20


--------------------------------------------------------------------------------------------------------


  energy-cutoff  :      500.00
  volume of cell :    11405.04
      direct lattice vectors                 reciprocal lattice vectors
    23.411294595  0.000000000  0.000000000     0.042714426  0.000000000  0.000000000
     0.000000000 18.121236951  0.000000000     0.000000000  0.055183871  0.000000000
     0.000000000  0.000000000 26.883366507     0.000000000  0.000000000  0.037197722

  length of vectors
    23.411294595 18.121236951 26.883366507     0.042714426  0.055183871  0.037197722



 k-points in units of 2pi/SCALE and weight: KPOINTS created by Atomic Simulation Env
   0.00000000  0.00000000  0.00000000       0.111
   0.01423814  0.00000000  0.00000000       0.222
   0.00000000  0.01839462  0.00000000       0.222
   0.01423814  0.01839462  0.00000000       0.222
  -0.01423814  0.01839462  0.00000000       0.222

 k-points in reciprocal lattice and weights: KPOINTS created by Atomic Simulation Env
   0.00000000  0.00000000  0.00000000       0.111
   0.33333333  0.00000000  0.00000000       0.222
   0.00000000  0.33333333  0.00000000       0.222
   0.33333333  0.33333333  0.00000000       0.222
  -0.33333333  0.33333333  0.00000000       0.222

 position of ions in fractional coordinates (direct lattice) 
   0.56110767  0.45997760  0.72237725
   0.50871385  0.56170193  0.80976624
   0.57958065  0.39377395  0.75239560
   0.51843510  0.62693366  0.78785137
   0.76110146  0.10342444  0.65117480
   0.92642768  0.27866896  0.35633493
   0.79333970  0.20727890  0.37345652
   0.97453911  0.94360860  0.32530279
   0.62573266  0.96347285  0.37523120
   0.82053840  0.99500666  0.36899263
   0.74999307  0.14117876  0.45803819
   0.91549959  0.24947657  0.50885043
   0.58349286  0.30426355  0.30592717
   0.89136860  0.33477774  0.61575951
   0.58509099  0.36027987  0.61364022
   0.59343304  0.87100744  0.57812127
   0.03407824  0.33811396  0.65171283
   0.93527051  0.41951423  0.45410146
   0.74613838  0.53031199  0.42248819
   0.79774115  0.38228531  0.63467811
   0.59110202  0.56868283  0.37803474
   0.71843379  0.64593279  0.38346059
   0.84115291  0.54242660  0.41959617
   0.00476455  0.60379815  0.35777830
   0.82835870  0.71235667  0.46794226
   0.87806010  0.59865080  0.72088840
   0.51999031  0.98556476  0.42170307
   0.22309457  0.98015484  0.39320502
   0.21637369  0.23785146  0.31923033
   0.15750105  0.32980623  0.27898292
   0.34154688  0.15558571  0.33077276
   0.22271586  0.04575893  0.32273843
   0.51184464  0.82316122  0.54674222
   0.38330404  0.24315695  0.64744878
   0.24445891  0.09281297  0.59845030
   0.31538097  0.48713646  0.44243467
   0.40895618  0.43873486  0.40569060
   0.39849950  0.79311361  0.38878680
   0.24420236  0.65543008  0.29432688
   0.31174138  0.41847571  0.36925764
   0.40547429  0.58427965  0.33881989
   0.13935762  0.48797365  0.35192946
   0.59326935  0.69798713  0.35239799
   0.46900683  0.86142747  0.44382838
   0.12185722  0.32288728  0.61156290
   0.07311133  0.66490606  0.64573479
   0.24297970  0.38386370  0.68244731
   0.24429529  0.81439208  0.66891715
   0.59364271  0.50360735  0.71721733
   0.46546432  0.54199076  0.81743063
   0.60262938  0.40929989  0.78662886
   0.54297569  0.35862736  0.76210501
   0.60921045  0.35997501  0.72979174
   0.54361715  0.52507898  0.82057586
   0.56176771  0.64596636  0.77973568
   0.48355829  0.66291792  0.77608519
   0.36894173  0.64835510  0.43900002
   0.34681565  0.50403387  0.42038813
   0.86071399  0.56602798  0.69665845
   0.34914684  0.95443943  0.53113421
   0.03344970  0.93257982  0.52853098
   0.63635548  0.07886855  0.48937667
   0.06864615  0.05226542  0.39511073
   0.45189954  0.12956232  0.42059728
   0.80588415  0.21365018  0.48316661
   0.97311963  0.18157897  0.59878894
   0.27476529  0.29917287  0.44851223
   0.55635417  0.77509129  0.44175101
   0.39295896  0.96795470  0.61991099
   0.17751724  0.34996845  0.40527312
   0.86670718  0.68394933  0.63720822
   0.86569601  0.96717693  0.46703846
   0.30104714  0.76093683  0.45792526
   0.42161095  0.26125222  0.37959630
   0.81107790  0.46537986  0.52006798
   0.98352604  0.07278229  0.52124001
   0.52031854  0.45321839  0.62095521
   0.03453641  0.91994776  0.42940526
   0.96303654  0.30319531  0.35125762
   0.06962669  0.33610577  0.37637178
   0.20829566  0.72864429  0.39536010
   0.03890126  0.41910192  0.49910875
   0.23948379  0.28559928  0.58788006
   0.39756133  0.19318739  0.64411933
   0.45583189  0.55802081  0.58344410
   0.90978871  0.74920230  0.55747723
   0.86912727  0.10804334  0.44227833
   0.57257679  0.66733185  0.37613173
   0.14242656  0.15912550  0.37597224
   0.34988744  0.76606230  0.60676672
   0.91099605  0.84504757  0.48317962
   0.06133801  0.53687171  0.44225348
   0.70833903  0.55516655  0.41995768
   0.07548726  0.81680680  0.48299416
   0.70046477  0.82755572  0.43263529
   0.73018193  0.04901644  0.54299563
   0.91894913  0.30229531  0.63193875
   0.73496765  0.85281907  0.61283880
   0.62512195  0.52739400  0.48637871
   0.55657330  0.62970304  0.46724942
   0.42640692  0.24325942  0.55455974
   0.97829009  0.72824363  0.47679564
   0.65425743  0.59419681  0.63371012
   0.39718908  0.74470664  0.51580554
   0.60269007  0.51766545  0.38567099
   0.71930758  0.63146981  0.55715162
   0.14676513  0.36398901  0.61988949
   0.06619892  0.54854267  0.54192397
   0.81890237  0.88460962  0.53665979
   0.82821553  0.35538514  0.45190334
   0.52730428  0.29811527  0.53180675
   0.73680951  0.49933871  0.59532295
   0.55743394  0.17243111  0.39490854
   0.80596408  0.25641257  0.38329286
   0.23744622  0.95325075  0.50791956
   0.69294030  0.77650428  0.54115221
   0.92384958  0.94978018  0.55297560
   0.52573722  0.31778112  0.39855594
   0.46953893  0.98608422  0.54666152
   0.83772409  0.09479887  0.53978263
   0.53790325  0.11641749  0.48623709
   0.35019344  0.18660873  0.43963639
   0.01176032  0.96241390  0.33524376
   0.46328924  0.58063499  0.67779586
   0.65496522  0.92539750  0.37922825
   0.07629334  0.68602626  0.43588102
   0.45020791  0.40216059  0.55195422
   0.71921944  0.70042085  0.37958300
   0.44705199  0.69812827  0.60335335
   0.75255106  0.70932458  0.47629548
   0.77856938  0.12111112  0.62071814
   0.99327462  0.30801347  0.44840298
   0.52984971  0.50662174  0.52564162
   0.81677759  0.49906173  0.42344221
   0.23586930  0.14457270  0.60525401
   0.20353331  0.83070132  0.47053363
   0.23998338  0.55843702  0.52275197
   0.06125455  0.62547722  0.62370299
   0.04607407  0.60234669  0.35417863
   0.80070859  0.97868464  0.60582109
   0.53799091  0.02769749  0.40450275
   0.60440797  0.31440620  0.60492565
   0.86154611  0.00408085  0.36920633
   0.09491131  0.14902284  0.46708233
   0.17148395  0.20397296  0.53090170
   0.64098865  0.70443872  0.45481558
   0.43678778  0.40976848  0.38641325
   0.57463173  0.05747182  0.57087815
   0.15143775  0.59340802  0.38895836
   0.26773979  0.60233753  0.39230630
   0.44025846  0.32219818  0.47032443
   0.23800967  0.15851113  0.42990119
   0.07275620  0.15025064  0.56255862
   0.84497482  0.54416773  0.59963310
   0.62117943  0.27993988  0.41090545
   0.60266699  0.89152667  0.46722346
   0.03138539  0.19528983  0.38899188
   0.60746324  0.19540491  0.54777143
   0.13279973  0.93835464  0.47948708
   0.08025840  0.28037100  0.51158931
   0.37288803  0.10077051  0.56952702
   0.06662995  0.69700981  0.53571790
   0.66648838  0.41538488  0.43001156
   0.79936752  0.72948177  0.56416876
   0.70383856  0.95720843  0.47018456
   0.59605322  0.62976034  0.55402930
   0.72284030  0.29368465  0.45166811
   0.97754378  0.31421919  0.54719857
   0.15832184  0.62975783  0.57045284
   0.63333384  0.32678308  0.50780070
   0.81955364  0.39632528  0.60547161
   0.95857820  0.02724304  0.41695300
   0.28215502  0.19494568  0.51866047
   0.24925755  0.44303289  0.46105570
   0.27057765  0.84793799  0.56802258
   0.20366815  0.68557317  0.48688872
   0.14712345  0.47606988  0.49254493
   0.22451061  0.42258598  0.55687152
   0.91141698  0.45274460  0.47371881
   0.86978818  0.70456011  0.46415352
   0.73812021  0.09283462  0.44522965
   0.22218344  0.92978119  0.40794682
   0.25197527  0.40185346  0.64943485
   0.63051848  0.88326701  0.59345388
   0.41022327  0.78906239  0.42343739
   0.91777135  0.19603829  0.50824515
   0.13254706  0.44353611  0.33227266
   0.15514768  0.30352326  0.31056042
   0.37300515  0.13090704  0.34795342
   0.03456603  0.29191869  0.63342438
   0.57268926  0.25686819  0.32009968
   0.24447514  0.76903333  0.64975645
   0.20737430  0.64840505  0.31036906
   0.27537441  0.39219130  0.36737583
   0.36535081  0.59758663  0.34222079
   0.22638085  0.05618082  0.35811888
   0.24120334  0.19607823  0.32934297
   0.50127293  0.89230162  0.45484168
   0.55067930  0.82742162  0.53427601
   0.54505833  0.64798369  0.63523985
   0.47866245  0.11878635  0.59615891
   0.26288285  0.69287488  0.56865687
   0.44472576  0.84243755  0.58306564
   0.76564216  0.61676047  0.64939943
   0.84475637  0.83163412  0.62303374
   0.63965943  0.73907144  0.61999366
   0.00814528  0.03347552  0.60298064
   0.28513717  0.99930394  0.59407984
   0.50477592  0.96918435  0.62910167
   0.44703939  0.41098761  0.70909563
   0.08322528  0.60642030  0.40641308
   0.40916127  0.76195536  0.57573332
   0.84176382  0.44145312  0.46783897
   0.01708949  0.99048204  0.39361135
   0.01470021  0.28419027  0.39108141
   0.00923682  0.11509136  0.57250231
   0.60914483  0.65684306  0.61086217
   0.21396522  0.47566317  0.50974996
   0.91506213  0.75556094  0.49625454
   0.52057854  0.11045563  0.42598659
   0.41889477  0.16633729  0.58899794
   0.08345253  0.13917208  0.40698087
   0.70189793  0.04484625  0.48732303
   0.66505935  0.89803746  0.43747644
   0.65009874  0.50402706  0.43015089
   0.19846065  0.91248223  0.46399069
   0.21435420  0.36632539  0.60360024
   0.67355136  0.81347147  0.59432884
   0.21669646  0.64118722  0.53838617
   0.36878912  0.73512773  0.45920930
   0.79739675  0.88844073  0.59565028
   0.87981382  0.91228223  0.51198755
   0.57501000  0.57296705  0.51105014
   0.58981053  0.11532668  0.52531233
   0.85812234  0.15211323  0.49517595
   0.83556868  0.60356509  0.64576800
   0.13373852  0.36031890  0.35687228
   0.79065529  0.27993925  0.44187265
   0.39917610  0.17749484  0.39600320
   0.85603401  0.75006224  0.59652663
   0.28268090  0.93273465  0.54957502
   0.02307473  0.33044751  0.50224551
   0.57455938  0.69549008  0.43556436
   0.23024095  0.75260050  0.45196954
   0.59347076  0.28411036  0.54826010
   0.97517605  0.27237963  0.60259093
   0.88890636  0.02540900  0.42420019
   0.10473128  0.19545427  0.51775025
   0.04814566  0.73303709  0.48263019
   0.23202617  0.20547814  0.56106297
   0.56140781  0.25778527  0.38122611
   0.47763870  0.62256102  0.62425841
   0.28076835  0.76944058  0.59764929
   0.20850083  0.64339984  0.37179454
   0.74041078  0.71085581  0.53579937
   0.98656173  0.99063938  0.55036441
   0.70310456  0.73681815  0.43426040
   0.78790526  0.05941375  0.57676709
   0.45631390  0.32845159  0.40928789
   0.45119099  0.93193513  0.59518953
   0.50936376  0.03802979  0.58617641
   0.24424715  0.37040632  0.42094710
   0.65852534  0.33000211  0.45034791
   0.45978516  0.31582946  0.52863203
   0.33729937  0.58994254  0.39908301
   0.80318348  0.47647185  0.57968757
   0.06920979  0.89885916  0.48050551
   0.21190758  0.14445432  0.37359659
   0.07823286  0.49398500  0.49468762
   0.55757019  0.85234010  0.47473025
   0.71833271  0.58476250  0.60956955
   0.28664212  0.21010174  0.45911077
   0.08815003  0.62550088  0.56757889
   0.35428715  0.01495826  0.57900516
   0.48660594  0.47722477  0.56916010
   0.49184509  0.47916742  0.68743212

 position of ions in cartesian coordinates  (Angst):
  13.13625690  8.33536302 19.41993226
  11.90964986 10.17873376 21.76924249
  13.56873322  7.13567101 20.22692670
  12.13723684 11.36081340 21.18009706
  17.81837048  1.87417884 17.50577090
  21.68887124  5.04982631  9.57948250
  18.57310935  3.75615001 10.03976840
  22.81522226 17.09935504  8.74523415
  14.64921175 17.45931981 10.08747787
  19.20986618 18.03075152  9.91976410
  17.55830880  2.55833369 12.31360861
  21.43303056  4.52082400 13.67961260
  13.66032332  5.51363182  8.22435231
  20.86809293  6.06658679 16.55368846
  13.69773756  6.52871695 16.49671494
  13.89303563 15.78373220 15.54184604
   0.79781574  6.12704318 17.52023491
  21.89589338  7.60211669 12.20777585
  17.46806539  9.60990927 11.35790489
  18.67615305  6.92748262 17.06228422
  13.83846347 10.30523625 10.16284657
  16.81946503 11.70510107 10.30871170
  19.69247867  9.82944088 11.28015755
   0.11154425 10.94156933  9.61828518
  19.39294954 12.90878407 12.57986315
  20.55652378 10.84829309 19.37990704
  12.17364643 17.85965258 11.33679820
   5.22293275 17.76161802 10.57067472
   5.06558822  4.31016263  8.58198589
   3.68730349  5.97649684  7.50000000
   7.99605455  2.81940544  8.89228530
   5.21406665  0.82920834  8.67629559
  11.98294563 14.91669955 14.69827146
   8.97364370  4.40630462 17.40560298
   5.72309947  1.68188585 16.08835871
   7.38347683  8.82751530 11.89413327
   9.57419369  7.95041833 10.90632902
   9.32938927 14.37219961 10.45189795
   5.71709332 11.87720376  7.91249741
   7.29826932  7.58329756  9.92688859
   9.49267817 10.58787005  9.10861924
   3.26254231  8.84268608  9.46104865
  13.88920341 12.64839014  9.47364424
  10.98005707 15.61013129 11.93160111
   2.85283538  5.85111693 16.44086956
   1.71163088 12.04892029 17.35952501
   5.68846943  6.95608509 18.34648129
   5.71926911 14.75779190 17.98274504
  13.89794447  9.12598808 19.28121637
  10.89712231  9.82154305 21.97528716
  14.10833403  7.41702032 21.14723206
  12.71176382  6.49877131 20.48794830
  14.26240526  6.52319242 19.61925884
  12.72678121  9.51508065 22.05984157
  13.15170947 11.70570939 20.96191996
  11.32072565 12.01289275 20.86378265
   8.63740362 11.74899635 11.80179838
   8.11940335  9.13371715 11.30144811
  20.15042873 10.25712710 18.72852444
   8.17397949 17.29562304 14.27867553
   0.78310077 16.89949995 14.20869194
  14.89790566  1.42919560 13.15609244
   1.60709516  0.94711409 10.62190669
  10.57955332  2.34782959 11.30707087
  18.86679123  3.87160553 12.98914499
  22.78199025  3.29043555 16.09746252
   6.43261122  5.42138249 12.05751853
  13.02497128 14.04561295 11.87575437
   9.19967790 17.54053647 16.66529430
   4.15590840  6.34186120 10.89510594
  20.29073707 12.39400796 17.13030217
  20.26706433 17.52644236 12.55556607
   7.04790320 13.78911669 12.31057251
   9.87045805  4.73421333 10.20482654
  18.98838374  8.43325879 13.98117805
  23.02561783  1.31890521 14.01268610
  12.18133067  8.21287786 16.69336641
   0.80854198 16.67059137 11.54385891
  22.54593219  5.49427402  9.44298747
   1.63005096  6.09065222 10.11814055
   4.87647100 13.20393591 10.62861051
   0.91072893  7.59464512 13.41772355
   5.60662545  5.17541222 15.80419511
   9.30742552  3.50079449 17.31609597
  10.67161460 10.11202739 15.68494170
  21.29933161 13.57647241 14.98686458
  20.34739459  1.95787901 11.88993046
  13.40476402 12.09287863 10.11168720
   3.33439013  2.88355087 10.10739962
   8.19131803 13.88199648 16.31193215
  21.32759690 15.31330728 12.98949491
   1.43600223  9.72877939 11.88926245
  16.58313365 10.06030463 11.28987623
   1.76725442 14.80154966 12.98450890
  16.39878711 14.99633320 11.63069310
  17.09450431  0.88823844 14.59755044
  21.51378886  5.47796497 16.98864108
  17.20654406 15.45413643 16.47517020
  14.63491423  9.55703168 13.07549710
  13.03010146 11.41099800 12.56123752
   9.98273809  4.40816166 14.90843284
  22.90303759 13.19667544 12.81787194
  15.31701335 10.76758114 17.03626154
   9.29871055 13.49500556 13.86658948
  14.10975474  9.38073831 10.36813464
  16.83992155 11.44301403 14.97811108
   3.43596170  6.59593107 16.66471627
   1.54980251  9.94027176 14.56874065
  19.17156465 16.03022057 14.42722185
  19.38959778  6.44001838 12.14868300
  12.34487586  5.40221747 14.29675581
  17.24966443  9.04863509 16.00428507
  13.05025010  3.12466491 10.61647095
  18.86866258  4.64651295 10.30420244
   5.55892333 17.27408272 13.65458756
  16.22262944 14.07121807 14.54799318
  21.62851467 17.21119164 14.86584578
  12.30818899  5.75858697 10.71452528
  10.99251418 17.86906585 14.69610189
  19.61220546  1.71787287 14.51117437
  12.59301152  2.10962891 13.07168996
   8.19848185  3.38158106 11.81890631
   0.27532438 17.44013033  9.01248080
  10.84620094 10.52182424 18.22143440
  15.33358375 16.76934745 10.19493214
   1.78612593 12.43164437 11.71794928
  10.53994996  7.28764740 14.83838746
  16.83785811 12.69249221 10.20446890
  10.46606580 12.65094773 16.22016920
  17.61819454 12.85383871 12.80442605
  18.22731719  2.19468321 16.68699317
  23.25384464  5.58158514 12.05458163
  12.40446769  9.18061263 14.13101644
  19.12182067  9.04361594 11.38355200
   5.52200573  2.61983615 16.27126533
   4.76497818 15.05333538 12.64952801
   5.61832154 10.11956957 14.05333285
   1.43404827 11.33442094 16.76723595
   1.07865368 10.91526714  9.52151395
  18.74562475 17.73497634 16.28651047
  12.59506368  0.50191281 10.87439573
  14.14997303  5.69742916 16.26243808
  20.16990973  0.07395004  9.92550906
   2.22199659  2.70047811 12.55674536
   4.01466117  3.69624225 14.27242486
  15.00637423 12.76530097 12.22697399
  10.22576747  7.42551174 10.38808912
  13.45287275  1.04146054 15.34712656
   3.54535369 10.75328740 10.45651017
   6.26813510 10.91510113 10.54651395
  10.30702051  5.83862961 12.64390410
   5.57211440  2.87241773 11.55719116
   1.70331694  2.72272748 15.12346959
  19.78195434  9.86099238 16.12015643
  14.54261460  5.07285684 11.04652184
  14.10921452 16.15556596 12.56053950
   0.73477264  3.53889327 10.45741115
  14.22150093  3.54097869 14.72594019
   3.10901352 17.00414686 12.89022683
   1.87895312  5.08066939 13.75324297
   8.72979145  1.82608622 15.31080349
   1.55989343 12.63067998 14.40190067
  15.60335582  7.52728779 11.56015827
  18.71422850 13.21911202 15.16675564
  16.47777184 17.34580083 12.64014391
  13.95437759 11.41203642 14.89417282
  16.92262721  5.32192921 12.14235921
  22.88556544  5.69404046 14.71053971
   3.70651930 11.41199083 15.33569265
  14.82716522  5.92171361 13.65139239
  19.18681176  7.18190425 16.27711523
  22.44155659  0.49367766 11.20910044
   6.60561425  3.53265690 13.94333964
   5.83544193  8.02830396 12.39472924
   6.33457306 15.36568520 15.27035922
   4.76813504 12.42343385 13.08920785
   3.44435051  8.62697504 13.24126574
   5.25608395  7.65778069 14.97058118
  21.33745138  8.20429214 12.73515651
  20.36286723 12.76750071 12.47800922
  17.28034963  1.68227812 11.96927179
   5.20160189 16.84878525 10.96698378
   5.89906720  7.28208171 17.45899496
  14.76125389 16.00589083 15.95403804
   9.60385771 14.29878658 11.38342242
  21.48621551  3.55245637 13.66334053
   3.10309823  8.03742302  8.93260776
   3.63220806  5.50021683  8.34890949
   8.73253334  2.37219755  9.35415932
   0.80923558  5.28992767 17.02857972
  13.40739700  4.65476936  8.60535697
   5.72347963 13.93583515 17.46764083
   4.85490080 11.74990155  8.34376522
   6.44687148  7.10699146  9.87629901
   8.55333550 10.82900896  9.20004704
   5.29986878  1.01806603  9.62744117
   5.64688233  3.55318002  8.85384768
  11.73544815 16.16960912 12.22767567
  12.89211538 14.99390330 14.36313783
  12.76052107 11.74226593 17.07738563
  11.20610774  2.15255567 16.02675840
   6.15442779 12.55574987 15.28741111
  10.41160584 15.26601038 15.67476736
  17.92467411 11.17646261 17.45804287
  19.77684031 15.07023902 16.74924427
  14.97525536 13.39288863 16.66751671
   0.19069162  0.60661792 16.21014942
   6.67543033 18.10862355 15.97086609
  11.81745779 17.56281921 16.91237086
  10.46577097  7.44760386 19.06287762
   1.94841153 10.98908596 10.92575188
   9.57899500 13.80757354 15.47764989
  19.70678075  7.99967650 12.57708649
   0.40008717 17.94875972 10.58159830
   0.34415087  5.14987929 10.51358498
   0.21624596  2.08559773 15.39078947
  14.26086910 11.90280880 16.42203150
   5.00920282  8.61960502 13.70379492
  21.42278905 13.69169878 13.34099278
  12.18741762  2.00159257 11.45195358
   9.80686883  3.01423751 15.83424741
   1.95373172  2.52197018 10.94101594
  16.43233932  0.81266960 13.10088356
  15.56990048 16.27354967 11.76083937
  15.21965321  9.13359373 11.56390395
   4.64622069 16.53530673 12.47363180
   5.01830932  6.63826927 16.22680661
  15.76870926 14.74110928 15.97755996
   5.07314458 11.61910553 14.47363284
   8.63383069 13.32142384 12.34509184
  18.66809023 16.09964490 16.01308476
  20.59758058 16.53168249 13.76394908
  13.46172858 10.38287176 13.73874829
  13.80822803  2.08986215 14.12216380
  20.08975493  2.75647993 13.31199648
  19.56174453 10.93734607 17.36041780
   3.13099191  6.52942423  9.59392828
  18.51026388  5.07284540 11.87902451
   9.34522920  3.21642612 10.64589911
  20.04086449 13.59205559 16.03664401
   6.61792578 16.90230557 14.77442672
   0.54020936  5.98811771 13.50205012
  13.45117902 12.60314055 11.70943634
   5.39023881 13.63805193 12.15046292
  13.89391872  5.14843117 14.73907720
  22.83013387  4.93585584 16.19967288
  20.81044864  0.46044249 11.40392910
   2.45189488  3.54187308 13.91886965
   1.12715225 13.28353886 12.97472440
   5.43203300  3.72351807 15.08326140
  13.14328356  4.67138795 10.24864117
  11.18214042 11.28157575 16.78216764
   6.57315058 13.94321510 16.06682501
   4.88127424 11.65920104  9.99508876
  17.33397494 12.88158651 14.40409080
  23.09668726 17.95161095 14.79564825
  16.46058793 13.35205634 11.67438144
  18.44588209  1.07665055 15.50544108
  10.68289909  5.95194918 11.00303640
  10.56296516 16.88781723 16.00069819
  11.92486498  0.68914692 15.75839536
   5.71814202  6.71222076 11.31647527
  15.41693082  5.98004644 12.10686792
  10.76416579  5.72322055 14.21140874
   7.89661487 10.69048859 10.72869482
  18.80356511  8.63425931 15.58395333
   1.62029077 16.28843975 12.91760565
   4.96103076  2.61769098 10.04353415
   1.83153245  8.95161915 13.29886860
  13.05343995 15.44545689 12.76234739
  16.81709863 10.59661988 16.38728156
   6.71066321  3.80730339 12.34244318
   2.06370625 11.33484971 15.25843136
   8.29432089  0.27106218 15.56560796
  11.39207503  8.64790315 15.30093945
  11.51473033  8.68310630 18.48048971



--------------------------------------------------------------------------------------------------------


 k-point  1 :   0.0000 0.0000 0.0000  plane waves:  289505
 k-point  2 :   0.3333 0.0000 0.0000  plane waves:  289422
 k-point  3 :   0.0000 0.3333 0.0000  plane waves:  289550
 k-point  4 :   0.3333 0.3333 0.0000  plane waves:  289551
 k-point  5 :  -0.3333 0.3333 0.0000  plane waves:  289551

 maximum and minimum number of plane-waves per node :     72451    72309

 maximum number of plane-waves:    289551
 maximum index in each direction: 
   IXMAX=   43   IYMAX=   33   IZMAX=   49
   IXMIN=  -43   IYMIN=  -33   IZMIN=  -49


 real space projection operators:
  total allocation   :      13784.51 KBytes
  max/ min on nodes  :       3452.65       3441.06


 parallel 3D FFT for wavefunctions:
    minimum data exchange during FFTs selected (reduces bandwidth)
 parallel 3D FFT for charge:
    minimum data exchange during FFTs selected (reduces bandwidth)


 total amount of memory used by VASP MPI-rank0   697325. kBytes
=======================================================================

   base      :      30000. kBytes
   nonlr-proj:      16889. kBytes
   fftplans  :      30982. kBytes
   grid      :      57864. kBytes
   one-center:       1073. kBytes
   wavefun   :     560517. kBytes

     INWAV:  cpu time    0.0001: real time    0.0001
 Broyden mixing: mesh for mixing (old mesh)
   NGX = 85   NGY = 67   NGZ = 99
  (NGX  =256   NGY  =200   NGZ  =300)
  gives a total of 563805 points

 initial charge density was supplied:
 charge density of overlapping atoms calculated
 number of electron    1258.0000000 magnetization 
 keeping initial charge density in first step


--------------------------------------------------------------------------------------------------------


 Maximum index for non-local projection operator          649
 Maximum index for augmentation-charges          527 (set IRDMAX)


--------------------------------------------------------------------------------------------------------


 First call to EWALD:  gamma=   0.079
 Maximum number of real-space cells 3x 3x 2
 Maximum number of reciprocal cells 3x 2x 3

    FEWALD:  cpu time    0.0254: real time    0.0254


--------------------------------------- Iteration      1(   1)  ---------------------------------------


    POTLOK:  cpu time    0.2779: real time    0.2909
    SETDIJ:  cpu time    0.5702: real time    0.5719
     EDDAV:  cpu time   81.1867: real time   81.4853
       DOS:  cpu time    0.0019: real time    0.0019
    --------------------------------------------
      LOOP:  cpu time   82.0367: real time   82.3500

 eigenvalue-minimisations  :  8584
 total energy-change (2. order) : 0.1283659E+05  (-0.4943519E+05)
 number of electron    1258.0000000 magnetization 
 augmentation part     1258.0000000 magnetization 

 DIPCOR: dipole corrections for dipol
 direction  3 min pos    70,
 dipolmoment           0.000000      0.000000      1.152712 electrons x Angstroem
 Tr[quadrupol]    -95392.923956

 energy correction for charged system         0.000000 eV
 dipol+quadrupol energy correction           -0.010803 eV
 added-field ion interaction        143.191750 eV  (added to PSCEN)


 Free energy of the ion-electron system (eV)
  ---------------------------------------------------
  alpha Z        PSCENC =       633.34389955
  Ewald energy   TEWEN  =    308346.92757165
  -Hartree energ DENC   =   -370577.56178876
  -exchange      EXHF   =         0.00000000
  -V(xc)+E(xc)   XCENC  =      3776.82408721
  PAW double counting   =     59955.48764796   -58973.29898038
  entropy T*S    EENTRO =        -1.66445418
  eigenvalues    EBANDS =     -5030.70646597
  atomic energy  EATOM  =     74707.24229009
  Solvation  Ediel_sol  =         0.00000000
  ---------------------------------------------------
  free energy    TOTEN  =     12836.59380716 eV

  energy without entropy =    12838.25826134  energy(sigma->0) =    12837.42603425


--------------------------------------------------------------------------------------------------------




--------------------------------------- Iteration      1(   2)  ---------------------------------------


     EDDAV:  cpu time   97.5674: real time   97.9124
       DOS:  cpu time    0.0012: real time    0.0012
    --------------------------------------------
      LOOP:  cpu time   97.5686: real time   97.9136

 eigenvalue-minimisations  : 10744
 total energy-change (2. order) :-0.1221654E+05  (-0.1182431E+05)
 number of electron    1258.0000000 magnetization 
 augmentation part     1258.0000000 magnetization 

 DIPCOR: dipole corrections for dipol
 direction  3 min pos    70,
 dipolmoment           0.000000      0.000000      1.152712 electrons x Angstroem
 Tr[quadrupol]    -95392.923956

 energy correction for charged system         0.000000 eV
 dipol+quadrupol energy correction           -0.010803 eV
 added-field ion interaction        143.191750 eV  (added to PSCEN)


 Free energy of the ion-electron system (eV)
  ---------------------------------------------------
  alpha Z        PSCENC =       633.34389955
  Ewald energy   TEWEN  =    308346.92757165
  -Hartree energ DENC   =   -370577.56178876
  -exchange      EXHF   =         0.00000000
  -V(xc)+E(xc)   XCENC  =      3776.82408721
  PAW double counting   =     59955.48764796   -58973.29898038
  entropy T*S    EENTRO =        -0.00000000
  eigenvalues    EBANDS =    -17248.91208018
  atomic energy  EATOM  =     74707.24229009
  Solvation  Ediel_sol  =         0.00000000
  ---------------------------------------------------
  free energy    TOTEN  =       620.05264713 eV

  energy without entropy =      620.05264713  energy(sigma->0) =      620.05264713


--------------------------------------------------------------------------------------------------------




--------------------------------------- Iteration      1(   3)  ---------------------------------------


     EDDAV:  cpu time   84.0021: real time   84.3006
       DOS:  cpu time    0.0011: real time    0.0011
    --------------------------------------------
      LOOP:  cpu time   84.0032: real time   84.3017

 eigenvalue-minimisations  :  8936
 total energy-change (2. order) :-0.2637785E+04  (-0.2628444E+04)
 number of electron    1258.0000000 magnetization 
 augmentation part     1258.0000000 magnetization 

 DIPCOR: dipole corrections for dipol
 direction  3 min pos    70,
 dipolmoment           0.000000      0.000000      1.152712 electrons x Angstroem
 Tr[quadrupol]    -95392.923956

 energy correction for charged system         0.000000 eV
 dipol+quadrupol energy correction           -0.010803 eV
 added-field ion interaction        143.191750 eV  (added to PSCEN)


 Free energy of the ion-electron system (eV)
  ---------------------------------------------------
  alpha Z        PSCENC =       633.34389955
  Ewald energy   TEWEN  =    308346.92757165
  -Hartree energ DENC   =   -370577.56178876
  -exchange      EXHF   =         0.00000000
  -V(xc)+E(xc)   XCENC  =      3776.82408721
  PAW double counting   =     59955.48764796   -58973.29898038
  entropy T*S    EENTRO =        -0.00000000
  eigenvalues    EBANDS =    -19886.69750548
  atomic energy  EATOM  =     74707.24229009
  Solvation  Ediel_sol  =         0.00000000
  ---------------------------------------------------
[...]
     20.26706     17.52644     12.55557        -0.054419      1.266642     -0.950040
      7.04790     13.78912     12.31057        -0.258425     -0.071796     -0.071948
      9.87046      4.73421     10.20483         0.403138      0.006970      0.504837
     18.98838      8.43326     13.98118        -0.003054     -0.003661      0.008478
     23.02562      1.31891     14.01269         0.002036      0.001536      0.006274
     12.18133      8.21288     16.69337         0.003270     -0.001558      0.011328
      0.80854     16.67059     11.54386        -0.110339      0.441354     -0.283182
     22.54593      5.49427      9.44299         0.185440     -0.185564      0.418626
      1.63005      6.09065     10.11814         0.288947     -0.134280     -0.023496
      4.87647     13.20394     10.62861         0.426671     -0.156583      0.432787
      0.91073      7.59465     13.41772         0.444220      0.043639      0.181085
      5.60663      5.17541     15.80420        -0.001901      0.002756     -0.001849
      9.30743      3.50079     17.31610         0.001675     -0.006284      0.000643
     10.67161     10.11203     15.68494         0.001952      0.001340     -0.002993
     21.29933     13.57647     14.98686        -0.000513     -0.002195      0.000822
     20.34739      1.95788     11.88993        -0.090263     -0.041441      0.439553
     13.40476     12.09288     10.11169        -0.259203      0.194027      0.099536
      3.33439      2.88355     10.10740        -0.036078     -0.058675      0.196109
      8.19132     13.88200     16.31193        -0.005458      0.004184     -0.001874
     21.32760     15.31331     12.98949         0.320934     -1.481523      0.196255
      1.43600      9.72878     11.88926         0.542877      0.267648      0.065546
     16.58313     10.06030     11.28988        -0.117852     -0.552025     -0.034946
      1.76725     14.80155     12.98451        -0.029590     -6.358145      0.309641
     16.39879     14.99633     11.63069         1.820560     -3.820718     -0.210055
     17.09450      0.88824     14.59755        -0.001358      0.002111      0.001386
     21.51379      5.47796     16.98864        -0.011008      0.010154     -0.011288
     17.20654     15.45414     16.47517         0.001762     -0.003428      0.006650
     14.63491      9.55703     13.07550         1.969391     -1.278455     -1.190056
     13.03010     11.41100     12.56124        -3.570782     -2.527198      1.516267
      9.98274      4.40816     14.90843        -0.009523     -0.004392      0.002963
     22.90304     13.19668     12.81787         0.408247      0.298197      0.245523
     15.31701     10.76758     17.03626        -0.007613     -0.003703      0.010122
      9.29871     13.49501     13.86659         0.003339     -0.003074     -0.000441
     14.10975      9.38074     10.36813         0.276303     -0.114390      0.369369
     16.83992     11.44301     14.97811        -0.001861      0.001259      0.001172
      3.43596      6.59593     16.66472        -0.000702     -0.001992      0.001860
      1.54980      9.94027     14.56874        -0.009456     -0.000526      0.000817
     19.17156     16.03022     14.42722        -0.007876      0.002111     -0.002056
     19.38960      6.44002     12.14868        -0.131070      0.248446      0.199955
     12.34488      5.40222     14.29676        -0.014538      0.001936     -0.007497
     17.24966      9.04864     16.00429         0.003294     -0.005724      0.007933
     13.05025      3.12466     10.61647        -1.379387     -1.827911      0.528329
     18.86866      4.64651     10.30420        -0.041894     -0.024706      0.763226
      5.55892     17.27408     13.65459        -0.698379      0.210518     -0.869556
     16.22263     14.07122     14.54799        -0.001421     -0.000723     -0.001087
     21.62851     17.21119     14.86585         0.000088      0.004123      0.001053
     12.30819      5.75859     10.71453        -7.870394      6.651670      3.187554
     10.99251     17.86907     14.69610         0.005977     -0.000512      0.001616
     19.61221      1.71787     14.51117        -0.001786      0.002958     -0.000834
     12.59301      2.10963     13.07169        -2.069734      0.589373     -1.004951
      8.19848      3.38158     11.81891        -0.111753      0.161073      0.037338
      0.27532     17.44013      9.01248        -0.252155      0.116517      0.330650
     10.84620     10.52182     18.22143         0.002944     -0.004645     -0.003249
     15.33358     16.76935     10.19493        -0.564913      0.124365      0.629703
      1.78613     12.43164     11.71795         0.014463     -0.124279      0.115017
     10.53995      7.28765     14.83839        -0.002428     -0.002590      0.000404
     16.83786     12.69249     10.20447        -0.050605      0.281685      0.494410
     10.46607     12.65095     16.22017        -0.001682      0.000548      0.005255
     17.61819     12.85384     12.80443        -0.347955      0.222301     -1.099474
     18.22732      2.19468     16.68699        -0.003732     -0.027106      0.014069
     23.25384      5.58159     12.05458         0.239063      0.006251     -0.013585
     12.40447      9.18061     14.13102         0.009220     -0.011125      0.004672
     19.12182      9.04362     11.38355         0.340022     -0.391365      0.435450
      5.52201      2.61984     16.27127        -0.008680     -0.004517      0.001323
      4.76498     15.05334     12.64953         0.589255     -6.692270      0.301998
      5.61832     10.11957     14.05333         0.015282     -0.005963     -0.009553
      1.43405     11.33442     16.76724         0.003883     -0.005185     -0.002292
      1.07865     10.91527      9.52151         0.187239      0.222470      0.442390
     18.74562     17.73498     16.28651        -0.001682      0.000173      0.002148
     12.59506      0.50191     10.87440        -0.225212      0.379022      0.166954
     14.14997      5.69743     16.26244         0.001590      0.001485     -0.011407
     20.16991      0.07395      9.92551        -0.068231      0.006301      0.304346
      2.22200      2.70048     12.55675        -0.043133     -0.055183     -0.790095
      4.01466      3.69624     14.27242        -0.014180     -0.001143     -0.003257
     15.00637     12.76530     12.22697         2.647559      0.208398     -0.606182
     10.22577      7.42551     10.38809         0.255501     -0.711479      0.525671
     13.45287      1.04146     15.34713        -0.006771      0.003152      0.003232
      3.54535     10.75329     10.45651        -0.005593      0.704883      0.084063
      6.26814     10.91510     10.54651         0.143983      0.314858      0.038732
     10.30702      5.83863     12.64390         0.285855     -0.069102     -1.029557
      5.57211      2.87242     11.55719         0.324802      0.286327     -0.358828
      1.70332      2.72273     15.12347         0.006155      0.001224      0.000166
     19.78195      9.86099     16.12016         0.000945     -0.006980     -0.013862
     14.54261      5.07286     11.04652         1.388130      0.650199      0.840538
     14.10921     16.15557     12.56054        23.531191     14.656340     -4.519761
      0.73477      3.53889     10.45741         0.413501      0.156977      0.274400
     14.22150      3.54098     14.72594         0.002808      0.003502      0.003627
      3.10901     17.00415     12.89023         0.011134     -0.150214     -0.332096
      1.87895      5.08067     13.75324         0.001418      0.001193     -0.002652
      8.72979      1.82609     15.31080        -0.006533     -0.005395     -0.003327
      1.55989     12.63068     14.40190         0.001214     -0.002744      0.003036
     15.60336      7.52729     11.56016        -0.317714      0.191604      0.445782
     18.71423     13.21911     15.16676        -0.010850     -0.008216     -0.005592
     16.47777     17.34580     12.64014        -0.773178      0.365707     -0.206303
     13.95438     11.41204     14.89417         0.003246      0.005448     -0.001512
     16.92263      5.32193     12.14236         0.255774      0.049239     -0.020505
     22.88557      5.69404     14.71054         0.001137     -0.000350     -0.000872
      3.70652     11.41199     15.33569        -0.000019     -0.010100     -0.006531
     14.82717      5.92171     13.65139         0.309879      0.147125     -0.629862
     19.18681      7.18190     16.27712        -0.005282      0.010914      0.011204
     22.44156      0.49368     11.20910        -0.303493     -0.371792     -0.321236
      6.60561      3.53266     13.94334         0.011753     -0.005645     -0.000659
      5.83544      8.02830     12.39473        -0.034300     -0.749336     -0.633130
      6.33457     15.36569     15.27036         0.000694     -0.007303     -0.002027
      4.76814     12.42343     13.08921         0.269873      0.524272     -0.339514
      3.44435      8.62698     13.24127        -0.335064      0.079330      0.193624
      5.25608      7.65778     14.97058         0.001586      0.002955      0.001259
     21.33745      8.20429     12.73516        -0.257213     -0.141729     -0.130381
     20.36287     12.76750     12.47801         0.321071      0.276973      0.441535
     17.28035      1.68228     11.96927        -0.168418     -0.268752      0.484422
      5.20160     16.84879     10.96698        -0.331435      0.366800      0.365663
      5.89907      7.28208     17.45899        -0.004885      0.002043     -0.017274
     14.76125     16.00589     15.95404         0.000455      0.006835      0.003822
      9.60386     14.29879     11.38342        -0.512783     -0.403059      0.378807
     21.48622      3.55246     13.66334        -0.762093     -0.022154     -0.105726
      3.10310      8.03742      8.93261         0.095393     -0.240531      0.317212
      3.63221      5.50022      8.34891        -0.162496      0.544843      0.360391
      8.73253      2.37220      9.35416         0.190330      0.603213      0.347714
      0.80924      5.28993     17.02858        -0.005591     -0.001343      0.003065
     13.40740      4.65477      8.60536        -0.203764      0.161373      0.217459
      5.72348     13.93584     17.46764        -0.001096      0.012832     -0.004028
      4.85490     11.74990      8.34377         0.074879     -0.128551      0.506370
      6.44687      7.10699      9.87630         0.018895      0.046418      0.707026
      8.55334     10.82901      9.20005        -0.086432     -0.023650      0.745517
      5.29987      1.01807      9.62744        -0.073468      0.791007      0.117980
      5.64688      3.55318      8.85385        -0.376814     -0.058198      0.454497
     11.73545     16.16961     12.22768        -2.202958      1.013503     -0.693914
     12.89212     14.99390     14.36314        -0.002780     -0.000450     -0.001572
     12.76052     11.74227     17.07739        -0.009763     -0.002334      0.006379
     11.20611      2.15256     16.02676        -0.007578     -0.003709     -0.005980
      6.15443     12.55575     15.28741         0.003208      0.008524     -0.001242
     10.41161     15.26601     15.67477        -0.002356      0.003936      0.000508
     17.92467     11.17646     17.45804        -0.003982     -0.001218      0.004252
     19.77684     15.07024     16.74924        -0.007788      0.002318     -0.006864
     14.97526     13.39289     16.66752        -0.005432     -0.002575      0.001737
      0.19069      0.60662     16.21015        -0.003734     -0.000162      0.008277
      6.67543     18.10862     15.97087         0.016904      0.004647     -0.003278
     11.81746     17.56282     16.91237         0.002797     -0.007510     -0.003433
     10.46577      7.44760     19.06288        -0.005690     -0.000560      0.001532
      1.94841     10.98909     10.92575        -0.064606     -0.148171      0.034856
      9.57899     13.80757     15.47765        -0.003361     -0.003382      0.001795
     19.70678      7.99968     12.57709         0.128116     -0.166553     -0.323460
      0.40009     17.94876     10.58160         0.099564     -0.137870      0.304731
      0.34415      5.14988     10.51358         0.045359      0.035338      0.058815
      0.21625      2.08560     15.39079        -0.001273     -0.001787     -0.002606
     14.26087     11.90281     16.42203         0.006620      0.005708     -0.000697
      5.00920      8.61961     13.70379        -0.003003      0.001494     -0.001722
     21.42279     13.69170     13.34099         0.211856      0.241629     -0.652555
     12.18742      2.00159     11.45195         0.175064     -0.060824      0.468402
      9.80687      3.01424     15.83425        -0.005251     -0.000467     -0.000644
      1.95373      2.52197     10.94102         0.075923     -0.116311      0.063638
     16.43234      0.81267     13.10088         0.069355     -0.078696     -0.322915
     15.56990     16.27355     11.76084        -0.477218      4.551977     -0.218314
     15.21965      9.13359     11.56390         0.080505      0.020306      0.230624
      4.64622     16.53531     12.47363        -0.739535      6.166000     -0.374837
      5.01831      6.63827     16.22681        -0.000139     -0.003041      0.003434
     15.76871     14.74111     15.97756         0.001668      0.003447     -0.001021
      5.07314     11.61911     14.47363        -0.001894     -0.000475      0.001604
      8.63383     13.32142     12.34509        -0.233972     -0.119642      0.215143
     18.66809     16.09964     16.01308         0.002691     -0.004985      0.001687
     20.59758     16.53168     13.76395         0.000438      0.001177      0.002082
     13.46173     10.38287     13.73875         0.015333      0.013706     -0.002899
     13.80823      2.08986     14.12216         0.004364      0.002835      0.003402
     20.08975      2.75648     13.31200        -0.183243     -0.015600     -0.438309
     19.56174     10.93735     17.36042        -0.008027      0.003812      0.000767
      3.13099      6.52942      9.59393        -0.100403     -0.111030      0.046974
     18.51026      5.07285     11.87902        -0.283972      0.104187      0.073446
      9.34523      3.21643     10.64590        -0.142790     -0.293901      0.216789
     20.04086     13.59206     16.03664        -0.000569      0.000727      0.001645
      6.61793     16.90231     14.77443        -0.002331      0.006048     -0.000209
      0.54021      5.98812     13.50205         0.322116      0.198127     -0.422839
     13.45118     12.60314     11.70944         3.915388     -0.885731     -2.470000
      5.39024     13.63805     12.15046         0.098190     -0.583699      0.015861
     13.89392      5.14843     14.73908         0.011641      0.001581      0.002249
     22.83013      4.93586     16.19967         0.011765     -0.005640      0.001411
     20.81045      0.46044     11.40393         0.024906      0.047244      0.102932
      2.45189      3.54187     13.91887         0.004839      0.000112      0.003559
      1.12715     13.28354     12.97472        -0.133328     -0.559395     -0.252722
      5.43203      3.72352     15.08326        -0.001105      0.003020      0.002157
     13.14328      4.67139     10.24864         8.342442     -5.345632     -3.582544
     11.18214     11.28158     16.78217         0.005904     -0.002647     -0.002229
      6.57315     13.94322     16.06683        -0.002146     -0.006321      0.003935
      4.88127     11.65920      9.99509         0.072006     -0.074207      0.012430
     17.33397     12.88159     14.40409         0.007772     -0.000524      0.007668
     23.09669     17.95161     14.79565        -0.001446      0.003895     -0.003201
     16.46059     13.35206     11.67438        -0.703181     -1.351187      0.338104
     18.44588      1.07665     15.50544         0.001135      0.005492     -0.003095
     10.68290      5.95195     11.00304        -1.161480      0.521311      0.475706
     10.56297     16.88782     16.00070         0.001857      0.005654      0.001841
     11.92486      0.68915     15.75840         0.003426     -0.001957     -0.002770
      5.71814      6.71222     11.31648         0.022154     -0.126027     -0.114323
     15.41693      5.98005     12.10687        -0.159999     -0.468402     -0.824431
     10.76417      5.72322     14.21141         0.009147     -0.000606      0.002865
      7.89661     10.69049     10.72869        -0.123121     -0.074473     -0.054397
     18.80357      8.63426     15.58395        -0.003779      0.003167      0.000180
      1.62029     16.28844     12.91761        -0.325736      6.443245     -0.544466
      4.96103      2.61769     10.04353        -0.073703     -0.038826      0.063098
      1.83153      8.95162     13.29887         0.023867     -0.147436     -0.320955
     13.05344     15.44546     12.76235       -22.285853    -15.852750      4.695878
     16.81710     10.59662     16.38728         0.008205     -0.002098     -0.001467
      6.71066      3.80730     12.34244        -0.227078     -0.007422     -0.744523
      2.06371     11.33485     15.25843        -0.008022     -0.004131      0.001615
      8.29432      0.27106     15.56561        -0.002360      0.000788      0.001088
     11.39208      8.64790     15.30094         0.008664     -0.005028     -0.001298
     11.51473      8.68311     18.48049         0.001596      0.011128     -0.012406
 -----------------------------------------------------------------------------------
    total drift:                                0.469993      0.122753      0.256826


--------------------------------------------------------------------------------------------------------



  FREE ENERGIE OF THE ION-ELECTRON SYSTEM (eV)
  ---------------------------------------------------
  free  energy   TOTEN  =     -1886.10243523 eV

  energy  without entropy=    -1886.10243523  energy(sigma->0) =    -1886.10243523



--------------------------------------------------------------------------------------------------------


    POTLOK:  cpu time    0.8350: real time    0.8375


--------------------------------------------------------------------------------------------------------


 stress matrix after NEB project (eV)
    -32.53227      0.24638      0.30025
      0.24638    -33.50632     -0.48725
      0.30025     -0.48725    -25.55026
  FORCES: max atom, RMS     0.040605    0.008573
  FORCE total and by dimension    0.142424    0.031687
  Stress total and by dimension   53.241095   33.506323
 Quasi-Newton relaxation of ions (Broydens 2nd method)
  g(Force)  = 0.979E-03   g(Stress)= 0.000E+00

 Reset! Starting new Quasi-Newton update for ions 


--------------------------------------------------------------------------------------------------------


  
 reached required accuracy - stopping structural energy minimisation
     LOOP+:  cpu time 1250.6009: real time 1255.2800
    4ORBIT:  cpu time    0.0000: real time    0.0000

 total amount of memory used by VASP MPI-rank0   697325. kBytes
=======================================================================

   base      :      30000. kBytes
   nonlr-proj:      16889. kBytes
   fftplans  :      30982. kBytes
   grid      :      57864. kBytes
   one-center:       1073. kBytes
   wavefun   :     560517. kBytes

  
  
 General timing and accounting informations for this job:
 ========================================================
  
                  Total CPU time used (sec):     1352.756
                            User time (sec):     1349.541
                          System time (sec):        3.215
                         Elapsed time (sec):     1360.713
  
                   Maximum memory used (kb):      990520.
                   Average memory used (kb):           0.
  
                          Minor page faults:      3086974
                          Major page faults:          258
                 Voluntary context switches:         5687
