 276 276   0   0
  0.4132262E+02  0.2341129E-08  0.1812124E-08  0.2688337E-08  0.1500000E-16
   1.0000000000000000E-004
  CAR 
 unknown system                          
      5.63788942    -27.78182524  301     -2.38197179      1.00000000
    -27.782  0.0000E+00  0.0000E+00
    -27.670  0.0000E+00  0.0000E+00
    -27.559  0.0000E+00  0.0000E+00
    -27.448  0.0000E+00  0.0000E+00
    -27.336  0.0000E+00  0.0000E+00
    -27.225  0.0000E+00  0.0000E+00
    -27.113  0.0000E+00  0.0000E+00
    -27.002  0.0000E+00  0.0000E+00
    -26.891  0.1190E-16  0.1326E-17
    -26.779  0.4690E-14  0.5238E-15
    -26.668  0.9943E-12  0.1113E-12
    -26.556  0.1147E-09  0.1289E-10
    -26.445  0.7221E-08  0.8173E-09
    -26.334  0.2485E-06  0.2850E-07
    -26.222  0.4688E-05  0.5507E-06
    -26.111  0.4864E-04  0.5970E-05
    -25.999  0.2784E-03  0.3698E-04
    -25.888  0.8812E-03  0.1351E-03
    -25.777  0.1546E-02  0.3073E-03
    -25.665  0.1504E-02  0.4748E-03
    -25.554  0.8116E-03  0.5653E-03
    -25.442  0.2427E-03  0.5923E-03
    -25.331  0.4103E-04  0.5969E-03
    -25.220  0.1942E-04  0.5990E-03
    -25.108  0.1542E-03  0.6162E-03
    -24.997  0.8631E-03  0.7124E-03
    -24.885  0.2858E-02  0.1031E-02
    -24.774  0.5970E-02  0.1696E-02
    -24.663  0.9008E-02  0.2699E-02
    -24.551  0.1189E-01  0.4024E-02
    -24.440  0.1505E-01  0.5700E-02
    -24.328  0.1797E-01  0.7701E-02
    -24.217  0.2042E-01  0.9976E-02
    -24.106  0.2249E-01  0.1248E-01
    -23.994  0.2449E-01  0.1521E-01
    -23.883  0.2648E-01  0.1816E-01
    -23.771  0.2791E-01  0.2127E-01
    -23.660  0.2861E-01  0.2445E-01
    -23.549  0.2903E-01  0.2769E-01
    -23.437  0.3016E-01  0.3105E-01
    -23.326  0.3223E-01  0.3464E-01
    -23.214  0.3486E-01  0.3852E-01
    -23.103  0.3941E-01  0.4291E-01
    -22.992  0.4730E-01  0.4818E-01
    -22.880  0.5677E-01  0.5451E-01
    -22.769  0.6321E-01  0.6155E-01
    -22.657  0.6193E-01  0.6845E-01
    -22.546  0.5372E-01  0.7443E-01
    -22.435  0.4379E-01  0.7931E-01
    -22.323  0.3477E-01  0.8319E-01
    -22.212  0.2594E-01  0.8608E-01
    -22.100  0.1764E-01  0.8804E-01
    -21.989  0.1120E-01  0.8929E-01
    -21.878  0.6867E-02  0.9005E-01
    -21.766  0.4756E-02  0.9058E-01
    -21.655  0.3747E-02  0.9100E-01
    -21.543  0.2306E-02  0.9126E-01
    -21.432  0.1013E-02  0.9137E-01
    -21.321  0.8281E-03  0.9146E-01
    -21.209  0.1400E-02  0.9162E-01
    -21.098  0.1618E-02  0.9180E-01
    -20.986  0.1051E-02  0.9192E-01
    -20.875  0.3788E-03  0.9196E-01
    -20.764  0.7554E-04  0.9197E-01
    -20.652  0.8315E-05  0.9197E-01
    -20.541  0.5036E-06  0.9197E-01
    -20.429  0.1674E-07  0.9197E-01
    -20.318  0.3043E-09  0.9197E-01
    -20.207  0.3020E-11  0.9197E-01
    -20.095  0.1631E-13  0.9197E-01
    -19.984  0.4761E-16  0.9197E-01
    -19.872  0.0000E+00  0.9197E-01
    -19.761  0.0000E+00  0.9197E-01
    -19.650  0.0000E+00  0.9197E-01
    -19.538  0.0000E+00  0.9197E-01
    -19.427  0.0000E+00  0.9197E-01
    -19.315  0.0000E+00  0.9197E-01
    -19.204  0.0000E+00  0.9197E-01
    -19.093  0.2083E-17  0.9197E-01
    -18.981  0.9106E-15  0.9197E-01
    -18.870  0.2298E-12  0.9197E-01
    -18.759  0.3153E-10  0.9197E-01
    -18.647  0.2358E-08  0.9197E-01
    -18.536  0.9635E-07  0.9197E-01
    -18.424  0.2157E-05  0.9197E-01
    -18.313  0.2653E-04  0.9197E-01
    -18.202  0.1799E-03  0.9199E-01
    -18.090  0.6739E-03  0.9207E-01
    -17.979  0.1398E-02  0.9222E-01
    -17.867  0.1609E-02  0.9240E-01
    -17.756  0.1028E-02  0.9252E-01
    -17.645  0.3637E-03  0.9256E-01
    -17.533  0.7121E-04  0.9256E-01
    -17.422  0.7696E-05  0.9256E-01
    -17.310  0.4576E-06  0.9256E-01
    -17.199  0.1493E-07  0.9256E-01
    -17.088  0.2664E-09  0.9256E-01
    -16.976  0.2595E-11  0.9256E-01
    -16.865  0.1376E-13  0.9256E-01
    -16.753  0.3928E-16  0.9256E-01
    -16.642  0.0000E+00  0.9256E-01
    -16.531  0.0000E+00  0.9256E-01
    -16.419  0.6547E-17  0.9256E-01
    -16.308  0.2757E-14  0.9256E-01
    -16.196  0.6188E-12  0.9256E-01
    -16.085  0.7557E-10  0.9256E-01
    -15.974  0.5032E-08  0.9256E-01
    -15.862  0.1832E-06  0.9256E-01
    -15.751  0.3655E-05  0.9257E-01
    -15.639  0.4010E-04  0.9257E-01
    -15.528  0.2426E-03  0.9260E-01
    -15.417  0.8114E-03  0.9269E-01
    -15.305  0.1504E-02  0.9285E-01
    -15.194  0.1546E-02  0.9303E-01
    -15.082  0.8815E-03  0.9313E-01
    -14.971  0.2788E-03  0.9316E-01
    -14.860  0.5396E-04  0.9316E-01
    -14.748  0.6125E-04  0.9317E-01
    -14.637  0.3452E-03  0.9321E-01
    -14.525  0.1227E-02  0.9334E-01
    -14.414  0.2676E-02  0.9364E-01
    -14.303  0.4014E-02  0.9409E-01
    -14.191  0.5156E-02  0.9466E-01
    -14.080  0.6747E-02  0.9542E-01
    -13.968  0.8655E-02  0.9638E-01
    -13.857  0.1013E-01  0.9751E-01
    -13.746  0.1083E-01  0.9871E-01
    -13.634  0.1133E-01  0.9998E-01
    -13.523  0.1211E-01  0.1013E+00
    -13.411  0.1245E-01  0.1027E+00
    -13.300  0.1172E-01  0.1040E+00
    -13.189  0.1089E-01  0.1052E+00
    -13.077  0.1119E-01  0.1065E+00
    -12.966  0.1231E-01  0.1079E+00
    -12.854  0.1315E-01  0.1093E+00
    -12.743  0.1342E-01  0.1108E+00
    -12.632  0.1335E-01  0.1123E+00
    -12.520  0.1304E-01  0.1137E+00
    -12.409  0.1269E-01  0.1152E+00
    -12.297  0.1233E-01  0.1165E+00
    -12.186  0.1236E-01  0.1179E+00
    -12.075  0.1367E-01  0.1194E+00
    -11.963  0.1549E-01  0.1212E+00
    -11.852  0.1583E-01  0.1229E+00
    -11.740  0.1491E-01  0.1246E+00
    -11.629  0.1470E-01  0.1262E+00
    -11.518  0.1580E-01  0.1280E+00
    -11.406  0.1709E-01  0.1299E+00
    -11.295  0.1860E-01  0.1320E+00
    -11.183  0.2195E-01  0.1344E+00
    -11.072  0.2713E-01  0.1374E+00
    -10.961  0.3178E-01  0.1410E+00
    -10.849  0.3446E-01  0.1448E+00
    -10.738  0.3592E-01  0.1488E+00
    -10.626  0.3708E-01  0.1529E+00
    -10.515  0.3831E-01  0.1572E+00
    -10.404  0.3951E-01  0.1616E+00
    -10.292  0.3970E-01  0.1660E+00
    -10.181  0.3769E-01  0.1702E+00
    -10.069  0.3336E-01  0.1739E+00
     -9.958  0.2794E-01  0.1771E+00
     -9.847  0.2205E-01  0.1795E+00
     -9.735  0.1491E-01  0.1812E+00
     -9.624  0.8946E-02  0.1822E+00
     -9.512  0.8485E-02  0.1831E+00
     -9.401  0.1186E-01  0.1844E+00
     -9.290  0.1287E-01  0.1859E+00
     -9.178  0.1101E-01  0.1871E+00
     -9.067  0.1125E-01  0.1883E+00
     -8.955  0.1432E-01  0.1899E+00
     -8.844  0.1679E-01  0.1918E+00
     -8.733  0.1758E-01  0.1938E+00
     -8.621  0.1895E-01  0.1959E+00
     -8.510  0.2253E-01  0.1984E+00
     -8.398  0.2647E-01  0.2013E+00
     -8.287  0.2879E-01  0.2045E+00
     -8.176  0.3068E-01  0.2080E+00
     -8.064  0.3418E-01  0.2118E+00
     -7.953  0.3929E-01  0.2161E+00
     -7.841  0.4399E-01  0.2210E+00
     -7.730  0.4696E-01  0.2263E+00
     -7.619  0.4892E-01  0.2317E+00
     -7.507  0.5132E-01  0.2374E+00
     -7.396  0.5459E-01  0.2435E+00
     -7.284  0.5796E-01  0.2500E+00
     -7.173  0.6091E-01  0.2568E+00
     -7.062  0.6352E-01  0.2638E+00
     -6.950  0.6566E-01  0.2712E+00
     -6.839  0.6646E-01  0.2786E+00
     -6.727  0.6552E-01  0.2859E+00
     -6.616  0.6402E-01  0.2930E+00
     -6.505  0.6286E-01  0.3000E+00
     -6.393  0.6151E-01  0.3068E+00
     -6.282  0.5927E-01  0.3135E+00
     -6.170  0.5745E-01  0.3199E+00
     -6.059  0.5787E-01  0.3263E+00
     -5.948  0.5947E-01  0.3329E+00
     -5.836  0.5961E-01  0.3396E+00
     -5.725  0.5759E-01  0.3460E+00
     -5.613  0.5455E-01  0.3521E+00
     -5.502  0.5126E-01  0.3578E+00
     -5.391  0.4627E-01  0.3629E+00
     -5.279  0.3731E-01  0.3671E+00
     -5.168  0.2622E-01  0.3700E+00
     -5.056  0.1773E-01  0.3720E+00
     -4.945  0.1273E-01  0.3734E+00
     -4.834  0.8546E-02  0.3743E+00
     -4.722  0.4380E-02  0.3748E+00
     -4.611  0.1501E-02  0.3750E+00
     -4.499  0.3178E-03  0.3750E+00
     -4.388  0.3955E-04  0.3750E+00
     -4.277  0.2806E-05  0.3750E+00
     -4.165  0.1115E-06  0.3750E+00
     -4.054  0.9506E-08  0.3750E+00
     -3.942  0.2437E-06  0.3750E+00
     -3.831  0.4615E-05  0.3750E+00
     -3.720  0.4806E-04  0.3750E+00
     -3.608  0.2760E-03  0.3751E+00
     -3.497  0.8767E-03  0.3752E+00
     -3.385  0.1543E-02  0.3753E+00
     -3.274  0.1507E-02  0.3755E+00
     -3.163  0.8160E-03  0.3756E+00
     -3.051  0.2449E-03  0.3756E+00
     -2.940  0.4063E-04  0.3756E+00
     -2.828  0.3718E-05  0.3756E+00
     -2.717  0.1870E-06  0.3756E+00
     -2.606  0.5157E-08  0.3756E+00
     -2.494  0.7774E-10  0.3756E+00
     -2.383  0.6390E-12  0.3756E+00
     -2.271  0.3058E-14  0.3756E+00
     -2.160  0.5906E-13  0.3756E+00
     -2.049  0.9469E-11  0.3756E+00
     -1.937  0.8271E-09  0.3756E+00
     -1.826  0.3945E-07  0.3756E+00
     -1.714  0.1030E-05  0.3756E+00
     -1.603  0.1477E-04  0.3756E+00
     -1.492  0.1166E-03  0.3756E+00
     -1.380  0.5083E-03  0.3757E+00
     -1.269  0.1227E-02  0.3758E+00
     -1.157  0.1642E-02  0.3760E+00
     -1.046  0.1219E-02  0.3762E+00
     -0.935  0.5020E-03  0.3762E+00
     -0.823  0.1145E-03  0.3762E+00
     -0.712  0.1687E-04  0.3762E+00
     -0.600  0.3233E-04  0.3762E+00
     -0.489  0.2259E-03  0.3763E+00
     -0.378  0.9451E-03  0.3764E+00
     -0.266  0.2380E-02  0.3766E+00
     -0.155  0.3812E-02  0.3771E+00
     -0.043  0.4237E-02  0.3775E+00
      0.068  0.3849E-02  0.3780E+00
      0.179  0.3784E-02  0.3784E+00
      0.291  0.4431E-02  0.3789E+00
      0.402  0.5248E-02  0.3795E+00
      0.514  0.6010E-02  0.3801E+00
      0.625  0.6927E-02  0.3809E+00
      0.736  0.8168E-02  0.3818E+00
      0.848  0.9476E-02  0.3829E+00
      0.959  0.1035E-01  0.3840E+00
      1.071  0.1081E-01  0.3852E+00
      1.182  0.1135E-01  0.3865E+00
      1.293  0.1233E-01  0.3879E+00
      1.405  0.1351E-01  0.3894E+00
      1.516  0.1448E-01  0.3910E+00
      1.628  0.1510E-01  0.3927E+00
      1.739  0.1539E-01  0.3944E+00
      1.850  0.1586E-01  0.3961E+00
      1.962  0.1675E-01  0.3980E+00
      2.073  0.1794E-01  0.4000E+00
      2.185  0.1972E-01  0.4022E+00
      2.296  0.2222E-01  0.4047E+00
      2.407  0.2504E-01  0.4075E+00
      2.519  0.2797E-01  0.4106E+00
      2.630  0.3072E-01  0.4140E+00
      2.742  0.3297E-01  0.4177E+00
      2.853  0.3526E-01  0.4216E+00
      2.964  0.3841E-01  0.4259E+00
      3.076  0.4220E-01  0.4306E+00
      3.187  0.4574E-01  0.4357E+00
      3.299  0.4824E-01  0.4411E+00
      3.410  0.4883E-01  0.4465E+00
      3.521  0.4542E-01  0.4516E+00
      3.633  0.3497E-01  0.4554E+00
      3.744  0.1959E-01  0.4576E+00
      3.856  0.7220E-02  0.4584E+00
      3.967  0.1641E-02  0.4586E+00
      4.078  0.2211E-03  0.4586E+00
      4.190  0.1723E-04  0.4586E+00
      4.301  0.7642E-06  0.4586E+00
      4.412  0.1906E-07  0.4586E+00
      4.524  0.2650E-09  0.4586E+00
      4.635  0.2041E-11  0.4586E+00
      4.747  0.8663E-14  0.4586E+00
      4.858  0.1991E-16  0.4586E+00
      4.969  0.0000E+00  0.4586E+00
      5.081  0.0000E+00  0.4586E+00
      5.192  0.0000E+00  0.4586E+00
      5.304  0.0000E+00  0.4586E+00
      5.415  0.0000E+00  0.4586E+00
      5.526  0.0000E+00  0.4586E+00
      5.638  0.0000E+00  0.4586E+00
