  COHP#    atomMU    atomNU   distance   translation   ICOHP (at) eF 
                                                          for spin 1 
      1      O204      W271    1.92595     0   0   0        -5.36462 
      1   O204_2s   W271_6s    1.92595     0   0   0        -0.76633 
      1   O204_2s W271_5d_xy    1.92595     0   0   0        -0.54471 
      1   O204_2s W271_5d_yz    1.92595     0   0   0        -0.11436 
      1   O204_2s W271_5d_z^2    1.92595     0   0   0        -0.15614 
      1   O204_2s W271_5d_xz    1.92595     0   0   0        -0.12259 
      1   O204_2s W271_5d_x^2-y^2    1.92595     0   0   0        -0.06408 
      1 O204_2p_y   W271_6s    1.92595     0   0   0         0.00650 
      1 O204_2p_y W271_5d_xy    1.92595     0   0   0        -0.01636 
      1 O204_2p_y W271_5d_yz    1.92595     0   0   0        -0.01612 
      1 O204_2p_y W271_5d_z^2    1.92595     0   0   0        -0.03262 
      1 O204_2p_y W271_5d_xz    1.92595     0   0   0        -0.21129 
      1 O204_2p_y W271_5d_x^2-y^2    1.92595     0   0   0        -0.73127 
      1 O204_2p_z   W271_6s    1.92595     0   0   0        -0.08859 
      1 O204_2p_z W271_5d_xy    1.92595     0   0   0        -0.17051 
      1 O204_2p_z W271_5d_yz    1.92595     0   0   0        -0.01323 
      1 O204_2p_z W271_5d_z^2    1.92595     0   0   0        -0.40367 
      1 O204_2p_z W271_5d_xz    1.92595     0   0   0        -0.01189 
      1 O204_2p_z W271_5d_x^2-y^2    1.92595     0   0   0        -0.16111 
      1 O204_2p_x   W271_6s    1.92595     0   0   0        -0.16689 
      1 O204_2p_x W271_5d_xy    1.92595     0   0   0        -0.57866 
      1 O204_2p_x W271_5d_yz    1.92595     0   0   0        -0.43886 
      1 O204_2p_x W271_5d_z^2    1.92595     0   0   0         0.02556 
      1 O204_2p_x W271_5d_xz    1.92595     0   0   0        -0.58675 
      1 O204_2p_x W271_5d_x^2-y^2    1.92595     0   0   0        -0.00065 
      2        C1      W271    2.17511     0   0   0        -3.25097 
      2     C1_2s   W271_6s    2.17511     0   0   0        -0.34447 
      2     C1_2s W271_5d_xy    2.17511     0   0   0        -0.12310 
      2     C1_2s W271_5d_yz    2.17511     0   0   0        -0.31420 
      2     C1_2s W271_5d_z^2    2.17511     0   0   0        -0.05709 
      2     C1_2s W271_5d_xz    2.17511     0   0   0        -0.10885 
      2     C1_2s W271_5d_x^2-y^2    2.17511     0   0   0        -0.01445 
      2   C1_2p_y   W271_6s    2.17511     0   0   0        -0.05584 
      2   C1_2p_y W271_5d_xy    2.17511     0   0   0        -0.04518 
      2   C1_2p_y W271_5d_yz    2.17511     0   0   0        -0.10776 
      2   C1_2p_y W271_5d_z^2    2.17511     0   0   0        -0.15091 
      2   C1_2p_y W271_5d_xz    2.17511     0   0   0        -0.11382 
      2   C1_2p_y W271_5d_x^2-y^2    2.17511     0   0   0         0.00914 
      2   C1_2p_z   W271_6s    2.17511     0   0   0        -0.22915 
      2   C1_2p_z W271_5d_xy    2.17511     0   0   0        -0.33537 
      2   C1_2p_z W271_5d_yz    2.17511     0   0   0        -0.48073 
      2   C1_2p_z W271_5d_z^2    2.17511     0   0   0         0.00176 
      2   C1_2p_z W271_5d_xz    2.17511     0   0   0        -0.18782 
      2   C1_2p_z W271_5d_x^2-y^2    2.17511     0   0   0        -0.01902 
      2   C1_2p_x   W271_6s    2.17511     0   0   0        -0.08421 
      2   C1_2p_x W271_5d_xy    2.17511     0   0   0        -0.00789 
      2   C1_2p_x W271_5d_yz    2.17511     0   0   0        -0.31680 
      2   C1_2p_x W271_5d_z^2    2.17511     0   0   0        -0.13234 
      2   C1_2p_x W271_5d_xz    2.17511     0   0   0         0.01052 
      2   C1_2p_x W271_5d_x^2-y^2    2.17511     0   0   0        -0.04340 
      3      O205      W271    1.72092     0   0   0       -10.20550 
      3   O205_2s   W271_6s    1.72092     0   0   0        -1.50678 
      3   O205_2s W271_5d_xy    1.72092     0   0   0        -0.67265 
      3   O205_2s W271_5d_yz    1.72092     0   0   0        -0.18283 
      3   O205_2s W271_5d_z^2    1.72092     0   0   0        -0.10348 
      3   O205_2s W271_5d_xz    1.72092     0   0   0        -0.46350 
      3   O205_2s W271_5d_x^2-y^2    1.72092     0   0   0        -0.17670 
      3 O205_2p_y   W271_6s    1.72092     0   0   0        -0.01407 
      3 O205_2p_y W271_5d_xy    1.72092     0   0   0         0.00579 
      3 O205_2p_y W271_5d_yz    1.72092     0   0   0         0.00007 
      3 O205_2p_y W271_5d_z^2    1.72092     0   0   0         0.00101 
      3 O205_2p_y W271_5d_xz    1.72092     0   0   0        -0.73200 
      3 O205_2p_y W271_5d_x^2-y^2    1.72092     0   0   0        -1.45007 
      3 O205_2p_z   W271_6s    1.72092     0   0   0        -0.01908 
      3 O205_2p_z W271_5d_xy    1.72092     0   0   0        -0.80227 
      3 O205_2p_z W271_5d_yz    1.72092     0   0   0        -0.04549 
      3 O205_2p_z W271_5d_z^2    1.72092     0   0   0        -1.02504 
      3 O205_2p_z W271_5d_xz    1.72092     0   0   0        -0.18697 
      3 O205_2p_z W271_5d_x^2-y^2    1.72092     0   0   0        -0.18325 
      3 O205_2p_x   W271_6s    1.72092     0   0   0        -0.06684 
      3 O205_2p_x W271_5d_xy    1.72092     0   0   0        -1.12425 
      3 O205_2p_x W271_5d_yz    1.72092     0   0   0        -0.75413 
      3 O205_2p_x W271_5d_z^2    1.72092     0   0   0        -0.00280 
      3 O205_2p_x W271_5d_xz    1.72092     0   0   0        -0.63803 
      3 O205_2p_x W271_5d_x^2-y^2    1.72092     0   0   0        -0.06214 