 vasp.5.4.4.18Apr17-6-g9f103f2a35 (build Oct 20 2021 08:33:53) complex           
 executed on             LinuxGNU date 2024.03.20  01:49:30
 running on   32 total cores
 distrk:  each k-point on   32 cores,    1 groups
 distr:  one band on NCORES_PER_BAND=   4 cores,    8 groups


--------------------------------------------------------------------------------------------------------


 INCAR:
 POTCAR:    PAW_PBE C 08Apr2002                   
 POTCAR:    PAW_PBE H 15Jun2001                   
 POTCAR:    PAW_PBE O 08Apr2002                   
 POTCAR:    PAW_PBE Si 05Jan2001                  
 POTCAR:    PAW_PBE W 08Apr2002                   
 POTCAR:    PAW_PBE C 08Apr2002                   
   VRHFIN =C: s2p2                                                              
   LEXCH  = PE                                                                  
   EATOM  =   147.1560 eV,   10.8157 Ry                                         
                                                                                
   TITEL  = PAW_PBE C 08Apr2002                                                 
   LULTRA =        F    use ultrasoft PP ?                                      
   IUNSCR =        1    unscreen: 0-lin 1-nonlin 2-no                           
   RPACOR =    1.200    partial core radius                                     
   POMASS =   12.011; ZVAL   =    4.000    mass and valenz                      
   RCORE  =    1.500    outmost cutoff radius                                   
   RWIGS  =    1.630; RWIGS  =    0.863    wigner-seitz radius (au A)           
   ENMAX  =  400.000; ENMIN  =  300.000 eV                                      
   ICORE  =        2    local potential                                         
   LCOR   =        T    correct aug charges                                     
   LPAW   =        T    paw PP                                                  
   EAUG   =  644.873                                                            
   DEXC   =    0.000                                                            
   RMAX   =    1.529    core radius for proj-oper                               
   RAUG   =    1.300    factor for augmentation sphere                          
   RDEP   =    1.501    radius for radial grids                                 
   RDEPT  =    1.300    core radius for aug-charge                              
                                                                                
   Atomic configuration                                                         
    4 entries                                                                   
     n  l   j            E        occ.                                          
     1  0  0.50      -273.3789   2.0000                                         
     2  0  0.50       -13.7508   2.0000                                         
     2  1  0.50        -5.2854   2.0000                                         
     3  2  1.50        -5.4423   0.0000                                         
   Description                                                                  
     l       E           TYP  RCUT    TYP  RCUT                                 
     0    -13.7508458     23  1.200                                             
     0     -8.2022199     23  1.200                                             
     1     -5.2854383     23  1.500                                             
     1     34.0145650     23  1.500                                             
     2     -5.4423304      7  1.500                                             
  local pseudopotential read in
  partial core-charges read in
  partial kinetic energy density read in
  atomic valenz-charges read in
  non local Contribution for L=           0  read in
    real space projection operators read in
  non local Contribution for L=           0  read in
    real space projection operators read in
  non local Contribution for L=           1  read in
    real space projection operators read in
  non local Contribution for L=           1  read in
    real space projection operators read in
    PAW grid and wavefunctions read in

   number of l-projection  operators is LMAX  =           4
   number of lm-projection operators is LMMAX =           8

 POTCAR:    PAW_PBE H 15Jun2001                   
   VRHFIN =H: ultrasoft test                                                    
   LEXCH  = PE                                                                  
   EATOM  =    12.4884 eV,    0.9179 Ry                                         
                                                                                
   TITEL  = PAW_PBE H 15Jun2001                                                 
   LULTRA =        F    use ultrasoft PP ?                                      
   IUNSCR =        0    unscreen: 0-lin 1-nonlin 2-no                           
   RPACOR =    0.000    partial core radius                                     
   POMASS =    1.000; ZVAL   =    1.000    mass and valenz                      
   RCORE  =    1.100    outmost cutoff radius                                   
   RWIGS  =    0.700; RWIGS  =    0.370    wigner-seitz radius (au A)           
   ENMAX  =  250.000; ENMIN  =  200.000 eV                                      
   RCLOC  =    0.701    cutoff for local pot                                    
   LCOR   =        T    correct aug charges                                     
   LPAW   =        T    paw PP                                                  
   EAUG   =  400.000                                                            
   RMAX   =    1.123    core radius for proj-oper                               
   RAUG   =    1.200    factor for augmentation sphere                          
   RDEP   =    1.112    radius for radial grids                                 
   RDEPT  =    0.926    core radius for aug-charge                              
                                                                                
   Atomic configuration                                                         
    2 entries                                                                   
     n  l   j            E        occ.                                          
     1  0  0.50        -6.4927   1.0000                                         
     2  1  0.50        -3.4015   0.0000                                         
   Description                                                                  
     l       E           TYP  RCUT    TYP  RCUT                                 
     0     -6.4927494     23  1.100                                             
     0      6.8029130     23  1.100                                             
     1     -4.0817478     23  1.100                                             
  local pseudopotential read in
  atomic valenz-charges read in
  non local Contribution for L=           0  read in
    real space projection operators read in
  non local Contribution for L=           0  read in
    real space projection operators read in
  non local Contribution for L=           1  read in
    real space projection operators read in
    PAW grid and wavefunctions read in

   number of l-projection  operators is LMAX  =           3
   number of lm-projection operators is LMMAX =           5

 POTCAR:    PAW_PBE O 08Apr2002                   
   VRHFIN =O: s2p4                                                              
   LEXCH  = PE                                                                  
   EATOM  =   432.3788 eV,   31.7789 Ry                                         
                                                                                
   TITEL  = PAW_PBE O 08Apr2002                                                 
   LULTRA =        F    use ultrasoft PP ?                                      
   IUNSCR =        1    unscreen: 0-lin 1-nonlin 2-no                           
   RPACOR =    1.200    partial core radius                                     
   POMASS =   16.000; ZVAL   =    6.000    mass and valenz                      
   RCORE  =    1.520    outmost cutoff radius                                   
   RWIGS  =    1.550; RWIGS  =    0.820    wigner-seitz radius (au A)           
   ENMAX  =  400.000; ENMIN  =  300.000 eV                                      
   ICORE  =        2    local potential                                         
   LCOR   =        T    correct aug charges                                     
   LPAW   =        T    paw PP                                                  
   EAUG   =  605.392                                                            
   DEXC   =    0.000                                                            
   RMAX   =    1.553    core radius for proj-oper                               
   RAUG   =    1.300    factor for augmentation sphere                          
   RDEP   =    1.550    radius for radial grids                                 
   RDEPT  =    1.329    core radius for aug-charge                              
                                                                                
   Atomic configuration                                                         
    4 entries                                                                   
     n  l   j            E        occ.                                          
     1  0  0.50      -514.6923   2.0000                                         
     2  0  0.50       -23.9615   2.0000                                         
     2  1  0.50        -9.0305   4.0000                                         
     3  2  1.50        -9.5241   0.0000                                         
   Description                                                                  
     l       E           TYP  RCUT    TYP  RCUT                                 
     0    -23.9615318     23  1.200                                             
     0     -9.5240782     23  1.200                                             
     1     -9.0304911     23  1.520                                             
     1      8.1634956     23  1.520                                             
     2     -9.5240782      7  1.500                                             
  local pseudopotential read in
  partial core-charges read in
  partial kinetic energy density read in
  kinetic energy density of atom read in
  atomic valenz-charges read in
  non local Contribution for L=           0  read in
    real space projection operators read in
  non local Contribution for L=           0  read in
    real space projection operators read in
  non local Contribution for L=           1  read in
    real space projection operators read in
  non local Contribution for L=           1  read in
    real space projection operators read in
    PAW grid and wavefunctions read in

   number of l-projection  operators is LMAX  =           4
   number of lm-projection operators is LMMAX =           8

 POTCAR:    PAW_PBE Si 05Jan2001                  
   VRHFIN =Si: s2p2                                                             
   LEXCH  = PE                                                                  
   EATOM  =   103.0669 eV,    7.5752 Ry                                         
                                                                                
   TITEL  = PAW_PBE Si 05Jan2001                                                
   LULTRA =        F    use ultrasoft PP ?                                      
   IUNSCR =        1    unscreen: 0-lin 1-nonlin 2-no                           
   RPACOR =    1.500    partial core radius                                     
   POMASS =   28.085; ZVAL   =    4.000    mass and valenz                      
   RCORE  =    1.900    outmost cutoff radius                                   
   RWIGS  =    2.480; RWIGS  =    1.312    wigner-seitz radius (au A)           
   ENMAX  =  245.345; ENMIN  =  184.009 eV                                      
   ICORE  =        2    local potential                                         
   LCOR   =        T    correct aug charges                                     
   LPAW   =        T    paw PP                                                  
   EAUG   =  322.069                                                            
   DEXC   =    0.000                                                            
   RMAX   =    1.950    core radius for proj-oper                               
   RAUG   =    1.300    factor for augmentation sphere                          
   RDEP   =    1.993    radius for radial grids                                 
   RDEPT  =    1.837    core radius for aug-charge                              
                                                                                
   Atomic configuration                                                         
    6 entries                                                                   
     n  l   j            E        occ.                                          
     1  0  0.50     -1785.8828   2.0000                                         
     2  0  0.50      -139.4969   2.0000                                         
     2  1  1.50       -95.5546   6.0000                                         
     3  0  0.50       -10.8127   2.0000                                         
     3  1  0.50        -4.0811   2.0000                                         
     3  2  1.50        -4.0817   0.0000                                         
   Description                                                                  
     l       E           TYP  RCUT    TYP  RCUT                                 
     0    -10.8127223     23  1.900                                             
     0     -7.6451159     23  1.900                                             
     1     -4.0811372     23  1.900                                             
     1      2.4879257     23  1.900                                             
     2     -4.0817478      7  1.900                                             
  local pseudopotential read in
  partial core-charges read in
  partial kinetic energy density read in
  atomic valenz-charges read in
  non local Contribution for L=           0  read in
    real space projection operators read in
  non local Contribution for L=           0  read in
    real space projection operators read in
  non local Contribution for L=           1  read in
    real space projection operators read in
  non local Contribution for L=           1  read in
    real space projection operators read in
    PAW grid and wavefunctions read in

   number of l-projection  operators is LMAX  =           4
   number of lm-projection operators is LMMAX =           8

 POTCAR:    PAW_PBE W 08Apr2002                   
   VRHFIN =W : 6s5d                                                             
   LEXCH  = PE                                                                  
   EATOM  =   204.6103 eV,   15.0384 Ry                                         
                                                                                
   TITEL  = PAW_PBE W 08Apr2002                                                 
   LULTRA =        F    use ultrasoft PP ?                                      
   IUNSCR =        1    unscreen: 0-lin 1-nonlin 2-no                           
   RPACOR =    2.330    partial core radius                                     
   POMASS =  183.850; ZVAL   =    6.000    mass and valenz                      
   RCORE  =    2.750    outmost cutoff radius                                   
   RWIGS  =    2.750; RWIGS  =    1.455    wigner-seitz radius (au A)           
   ENMAX  =  223.057; ENMIN  =  167.293 eV                                      
   RCLOC  =    2.147    cutoff for local pot                                    
   LCOR   =        T    correct aug charges                                     
   LPAW   =        T    paw PP                                                  
   EAUG   =  373.438                                                            
   DEXC   =    0.000                                                            
   RMAX   =    2.801    core radius for proj-oper                               
   RAUG   =    1.300    factor for augmentation sphere                          
   RDEP   =    2.886    radius for radial grids                                 
   RDEPT  =    2.230    core radius for aug-charge                              
                                                                                
   Atomic configuration                                                         
   16 entries                                                                   
     n  l   j            E        occ.                                          
     1  0  0.50    -69465.5836   2.0000                                         
     2  0  0.50    -11986.2642   2.0000                                         
     2  1  1.50    -10479.8616   6.0000                                         
     3  0  0.50     -2759.0758   2.0000                                         
     3  1  1.50     -2313.1857   6.0000                                         
     3  2  2.50     -1801.1185  10.0000                                         
     4  0  0.50      -567.6791   2.0000                                         
     4  1  1.50      -421.4694   6.0000                                         
     4  2  2.50      -236.3473  10.0000                                         
     4  3  3.50       -31.2666  14.0000                                         
     5  0  0.50       -77.1085   2.0000                                         
     5  1  1.50       -41.3856   6.0000                                         
     5  2  2.50        -3.3185   5.0000                                         
     6  0  0.50        -5.1438   1.0000                                         
     6  1  0.50        -3.8096   0.0000                                         
     5  3  2.50        -1.3606   0.0000                                         
   Description                                                                  
     l       E           TYP  RCUT    TYP  RCUT                                 
     2     -3.3185288     23  2.500                                             
     2     -1.5965414     23  2.500                                             
     0     -5.1438054     23  2.500                                             
     0      4.9117504     23  2.500                                             
     1      2.7211652     23  2.750                                             
     1     27.2116520     23  2.750                                             
  local pseudopotential read in
  partial core-charges read in
  partial kinetic energy density read in
  atomic valenz-charges read in
  non local Contribution for L=           2  read in
    real space projection operators read in
  non local Contribution for L=           2  read in
    real space projection operators read in
  non local Contribution for L=           0  read in
    real space projection operators read in
  non local Contribution for L=           0  read in
    real space projection operators read in
  non local Contribution for L=           1  read in
    real space projection operators read in
  non local Contribution for L=           1  read in
    real space projection operators read in
    PAW grid and wavefunctions read in

   number of l-projection  operators is LMAX  =           6
   number of lm-projection operators is LMMAX =          18

 Optimization of the real space projectors (new method)

 maximal supplied QI-value         = 25.13
 optimisation between [QCUT,QGAM] = [ 11.31, 22.87] = [ 35.82,146.48] Ry 
 Optimized for a Real-space Cutoff    1.00 Angstroem

   l    n(q)    QCUT    max X(q) W(low)/X(q) W(high)/X(q)  e(spline) 
   0      7    11.310   115.676    0.43E-03    0.13E-02    0.19E-06
   0      7    11.310    87.132    0.43E-03    0.13E-02    0.18E-06
   1      6    11.310     4.429    0.42E-03    0.74E-03    0.11E-06
   1      6    11.310     2.733    0.34E-03    0.55E-03    0.92E-07
 Optimization of the real space projectors (new method)

 maximal supplied QI-value         = 34.20
 optimisation between [QCUT,QGAM] = [ 11.29, 22.57] = [ 35.68,142.71] Ry 
 Optimized for a Real-space Cutoff    1.16 Angstroem

   l    n(q)    QCUT    max X(q) W(low)/X(q) W(high)/X(q)  e(spline) 
   0      8    11.287    19.460    0.40E-03    0.73E-03    0.16E-06
   0      8    11.287    12.209    0.38E-03    0.70E-03    0.15E-06
   1      7    11.287     4.655    0.22E-03    0.25E-04    0.22E-06
 Optimization of the real space projectors (new method)

 maximal supplied QI-value         = 24.76
 optimisation between [QCUT,QGAM] = [ 11.39, 22.77] = [ 36.31,145.25] Ry 
 Optimized for a Real-space Cutoff    1.00 Angstroem

   l    n(q)    QCUT    max X(q) W(low)/X(q) W(high)/X(q)  e(spline) 
   0      7    11.387    20.381    0.39E-03    0.13E-02    0.15E-06
   0      7    11.387    15.268    0.42E-03    0.14E-02    0.17E-06
   1      6    11.387     5.964    0.41E-03    0.11E-02    0.17E-06
   1      6    11.387     5.382    0.39E-03    0.87E-03    0.15E-06
 Optimization of the real space projectors (new method)

 maximal supplied QI-value         = 19.84
 optimisation between [QCUT,QGAM] = [ 11.31, 22.82] = [ 35.82,145.81] Ry 
 Optimized for a Real-space Cutoff    1.16 Angstroem

   l    n(q)    QCUT    max X(q) W(low)/X(q) W(high)/X(q)  e(spline) 
   0      8    11.310   159.560    0.27E-03    0.30E-03    0.39E-07
   0      8    11.310   115.863    0.27E-03    0.30E-03    0.38E-07
   1      7    11.310    88.339    0.28E-03    0.28E-03    0.77E-07
   1      7    11.310    48.592    0.27E-03    0.27E-03    0.74E-07
 Optimization of the real space projectors (new method)

 maximal supplied QI-value         = 13.61
 optimisation between [QCUT,QGAM] = [ 11.43, 22.86] = [ 36.58,146.31] Ry 
 Optimized for a Real-space Cutoff    1.56 Angstroem

   l    n(q)    QCUT    max X(q) W(low)/X(q) W(high)/X(q)  e(spline) 
   2     10    11.429   130.855    0.22E-03    0.64E-03    0.11E-05
   2     10    11.429   114.007    0.22E-03    0.64E-03    0.11E-05
   0     11    11.429    84.709    0.39E-04    0.67E-04    0.23E-06
   0     11    11.429    49.163    0.35E-04    0.62E-04    0.21E-06
   1     10    11.429    15.765    0.84E-04    0.15E-03    0.24E-06
   1     10    11.429    10.638    0.58E-04    0.12E-03    0.19E-06

 ----------------------------------------------------------------------------- 
|                                                                             |
|  ADVICE TO THIS USER RUNNING 'VASP/VAMP'   (HEAR YOUR MASTER'S VOICE ...):  |
|                                                                             |
|      You enforced a specific xc-type in the INCAR file,                     |
|      a different type was found on the POTCAR file                          |
|          I HOPE YOU KNOW, WHAT YOU ARE  DOING                               |
|                                                                             |
 ----------------------------------------------------------------------------- 

  PAW_PBE C 08Apr2002                   :
 energy of atom  1       EATOM= -147.1560
 kinetic energy error for atom=    0.0076 (will be added to EATOM!!)
  PAW_PBE H 15Jun2001                   :
 energy of atom  2       EATOM=  -12.4884
 kinetic energy error for atom=    0.0020 (will be added to EATOM!!)
  PAW_PBE O 08Apr2002                   :
 energy of atom  3       EATOM= -432.3788
 kinetic energy error for atom=    0.0224 (will be added to EATOM!!)
  PAW_PBE Si 05Jan2001                  :
 energy of atom  4       EATOM= -103.0669
 kinetic energy error for atom=    0.0006 (will be added to EATOM!!)
  PAW_PBE W 08Apr2002                   :
 energy of atom  5       EATOM= -204.6103
 kinetic energy error for atom=    0.0017 (will be added to EATOM!!)


 POSCAR: C  H  O  Si W                           
  positions in direct lattice
  velocities in cartesian coordinates
 exchange correlation table for  LEXCH =        9
   RHO(1)=    0.500       N(1)  =     2000
   RHO(2)=  100.500       N(2)  =     4000

 VTST: version 3.2, (02/03/18)

 CHAIN: initializing optimizer
 
 OPT: Using VASP QUASI-newton optimizer
 CHAIN: Read ICHAIN            0

 POSCAR: C  H  O  Si W                           
  positions in direct lattice
  velocities in cartesian coordinates



--------------------------------------------------------------------------------------------------------


 ion  position               nearest neighbor table
   1  0.560  0.438  0.777-  49 1.11  50 1.11   2 1.52   3 1.54
   2  0.543  0.494  0.738-   1 1.52   4 1.53 276 1.92
   3  0.552  0.356  0.762-  52 1.10  51 1.10  53 1.10   1 1.54
   4  0.576  0.567  0.742-  56 1.10  55 1.10  54 1.11   2 1.53
   5  0.761  0.103  0.651- 131 0.97
   6  0.926  0.279  0.356-  79 0.98
   7  0.793  0.207  0.373- 114 0.97
   8  0.975  0.944  0.325- 123 0.97
   9  0.626  0.963  0.375- 125 0.98
  10  0.821  0.995  0.369- 143 0.97
  11  0.750  0.141  0.458- 181 0.98
  12  0.915  0.249  0.509- 186 0.97
  13  0.583  0.304  0.306- 191 0.97
  14  0.891  0.335  0.616-  97 0.98
  15  0.588  0.360  0.614- 142 0.97
  16  0.593  0.870  0.578- 184 0.99
  17  0.034  0.338  0.652- 190 0.97
  18  0.935  0.420  0.454- 179 0.98
  19  0.746  0.530  0.422-  93 1.00
  20  0.798  0.382  0.635- 171 0.97
  21  0.591  0.569  0.378- 105 0.99
  22  0.718  0.646  0.383- 128 0.99
  23  0.841  0.542  0.420- 134 0.98
  24  0.005  0.604  0.358- 139 0.97
  25  0.828  0.712  0.468- 180 0.99
  26  0.878  0.599  0.721-  59 0.97
  27  0.520  0.986  0.422- 141 0.99
  28  0.223  0.980  0.393- 182 1.00
  29  0.216  0.238  0.319- 197 0.99
  30  0.158  0.330  0.279- 188 0.97
  31  0.342  0.156  0.331- 189 0.98
  32  0.223  0.046  0.323- 196 0.97
  33  0.511  0.826  0.546- 199 0.97
  34  0.388  0.247  0.649-  84 0.97
  35  0.243  0.093  0.599- 135 0.98
  36  0.315  0.487  0.442-  58 0.99
  37  0.409  0.439  0.406- 147 0.98
  38  0.398  0.793  0.389- 185 0.97
  39  0.244  0.655  0.294- 193 0.97
  40  0.312  0.418  0.369- 194 0.98
  41  0.405  0.584  0.339- 195 0.97
  42  0.139  0.488  0.352- 187 0.98
  43  0.593  0.698  0.352-  88 0.97
  44  0.469  0.861  0.444- 198 0.99
  45  0.122  0.323  0.612- 107 0.97
  46  0.073  0.665  0.646- 138 0.97
  47  0.245  0.383  0.682- 183 0.97
  48  0.245  0.815  0.669- 192 0.97
  49  0.606  0.448  0.785-   1 1.11
  50  0.537  0.449  0.812-   1 1.11
  51  0.568  0.320  0.792-   3 1.10
  52  0.507  0.343  0.756-   3 1.10
  53  0.576  0.344  0.728-   3 1.10
  54  0.573  0.587  0.781-   4 1.11
  55  0.621  0.558  0.733-   4 1.10
  56  0.560  0.611  0.718-   4 1.10
  57  0.369  0.648  0.439- 230 1.66 265 1.68
  58  0.347  0.504  0.420-  36 0.99 265 1.67
  59  0.861  0.566  0.697-  26 0.97 236 1.64
  60  0.349  0.958  0.531- 241 1.68 274 1.70
  61  0.033  0.933  0.529- 256 1.63 267 1.66
  62  0.636  0.079  0.489- 234 1.60 223 1.65
  63  0.069  0.052  0.395- 222 1.64 214 1.65
  64  0.452  0.130  0.421- 239 1.65 220 1.65
  65  0.806  0.214  0.483- 238 1.67 235 1.69
  66  0.973  0.182  0.599- 216 1.63 246 1.65
  67  0.275  0.299  0.449- 262 1.65 272 1.66
  68  0.556  0.775  0.442- 243 1.51 270 1.66
  69  0.392  0.973  0.620- 260 1.65 274 1.66
  70  0.178  0.350  0.405- 262 1.66 237 1.67
  71  0.866  0.684  0.637- 240 1.64 236 1.65
  72  0.866  0.967  0.467- 232 1.60 247 1.65
  73  0.301  0.761  0.458- 230 1.65 244 1.67
  74  0.422  0.261  0.380- 239 1.67 259 1.67
  75  0.811  0.465  0.520- 266 1.63 213 1.64
  76  0.984  0.073  0.521- 256 1.68 216 1.69
  77  0.520  0.461  0.627- 275 1.67 276 1.99
  78  0.035  0.920  0.429- 267 1.64 214 1.65
  79  0.963  0.303  0.351-   6 0.98 215 1.65
  80  0.070  0.336  0.376- 215 1.64 237 1.65
  81  0.208  0.729  0.395- 244 1.66 254 1.67
  82  0.039  0.419  0.499- 269 1.64 242 1.65
  83  0.240  0.286  0.588- 250 1.63 227 1.63
  84  0.397  0.196  0.645-  34 0.97 221 1.64
  85  0.455  0.560  0.584- 252 1.68 275 1.68
  86  0.910  0.749  0.557- 240 1.64 219 1.66
  87  0.869  0.108  0.442- 247 1.64 235 1.65
  88  0.573  0.667  0.376-  43 0.97 243 1.68
  89  0.142  0.159  0.376- 268 1.65 222 1.65
  90  0.350  0.766  0.607- 212 1.62 253 1.64
  91  0.911  0.845  0.483- 232 1.62 219 1.66
  92  0.061  0.537  0.442- 269 1.66 211 1.67
  93  0.708  0.555  0.420-  19 1.00 225 1.67
  94  0.075  0.817  0.483- 267 1.50 249 1.65
  95  0.700  0.828  0.433- 224 1.53 257 1.65
  96  0.730  0.049  0.543- 223 1.64 258 1.64
  97  0.919  0.302  0.632-  14 0.98 246 1.63
  98  0.735  0.853  0.613- 231 1.66 228 1.68
  99  0.625  0.527  0.486- 233 1.58 225 1.68
 100  0.557  0.630  0.467- 243 1.52 233 1.63
 101  0.427  0.247  0.556- 264 1.68 221 1.68
 102  0.978  0.728  0.477- 249 1.65 219 1.65
 103  0.654  0.594  0.633- 271 1.64 217 1.67
 104  0.397  0.747  0.515- 212 1.65 230 1.66
 105  0.603  0.518  0.386-  21 0.99 225 1.65
 106  0.720  0.631  0.557- 255 1.63 271 1.64
 107  0.147  0.364  0.620-  45 0.97 227 1.64
 108  0.066  0.549  0.542- 269 1.63 273 1.64
 109  0.819  0.885  0.537- 232 1.65 231 1.67
 110  0.828  0.355  0.452- 238 1.65 213 1.65
 111  0.528  0.298  0.531- 264 1.61 245 1.63
 112  0.737  0.499  0.595- 271 1.65 266 1.66
 113  0.557  0.172  0.395- 251 1.59 220 1.64
 114  0.806  0.256  0.383-   7 0.97 238 1.67
 115  0.237  0.953  0.508- 241 1.58 226 1.67
 116  0.693  0.776  0.542- 255 1.63 228 1.64
 117  0.924  0.950  0.553- 256 1.65 232 1.65
 118  0.526  0.318  0.399- 251 1.45 259 1.66
 119  0.468  0.990  0.546- 260 1.69 261 1.70
 120  0.837  0.095  0.540- 235 1.66 258 1.66
 121  0.538  0.116  0.486- 234 1.61 220 1.67
 122  0.350  0.187  0.440- 272 1.63 239 1.65
 123  0.012  0.962  0.335-   8 0.97 214 1.65
 124  0.455  0.594  0.677- 252 1.66 276 1.96
 125  0.655  0.925  0.379-   9 0.98 224 1.66
 126  0.076  0.686  0.436- 211 1.65 249 1.66
 127  0.454  0.404  0.554- 275 1.67 264 1.70
 128  0.719  0.700  0.380-  22 0.99 257 1.65
 129  0.450  0.704  0.600- 212 1.63 252 1.63
 130  0.753  0.709  0.476- 255 1.63 257 1.69
 131  0.778  0.121  0.621-   5 0.97 258 1.64
 132  0.993  0.308  0.448- 242 1.66 215 1.68
 133  0.533  0.509  0.530- 275 1.63 233 1.64
 134  0.817  0.499  0.423-  23 0.98 213 1.69
 135  0.235  0.145  0.605-  35 0.98 250 1.62
 136  0.204  0.831  0.471- 226 1.50 244 1.63
 137  0.240  0.559  0.523- 229 1.65 218 1.66
 138  0.061  0.625  0.624-  46 0.97 273 1.63
 139  0.046  0.602  0.354-  24 0.97 211 1.65
 140  0.801  0.979  0.606- 231 1.66 258 1.68
 141  0.538  0.028  0.405-  27 0.99 220 1.66
 142  0.604  0.313  0.605-  15 0.97 245 1.64
 143  0.862  0.004  0.369-  10 0.97 247 1.66
 144  0.095  0.149  0.467- 248 1.62 222 1.65
 145  0.171  0.204  0.531- 248 1.61 250 1.63
 146  0.641  0.704  0.455- 243 1.65 257 1.66
 147  0.437  0.410  0.386-  37 0.98 259 1.66
 148  0.574  0.059  0.571- 261 1.62 234 1.65
 149  0.151  0.593  0.389- 254 1.68 211 1.68
 150  0.268  0.602  0.392- 265 1.65 254 1.67
 151  0.440  0.322  0.470- 264 1.65 259 1.69
 152  0.238  0.159  0.430- 268 1.65 272 1.67
 153  0.073  0.150  0.563- 248 1.64 216 1.64
 154  0.845  0.544  0.600- 236 1.66 266 1.66
 155  0.621  0.280  0.411- 263 1.65 251 1.66
 156  0.603  0.892  0.467- 270 1.29 224 1.67
 157  0.031  0.195  0.389- 215 1.66 222 1.66
 158  0.608  0.195  0.548- 234 1.62 245 1.64
 159  0.133  0.938  0.479- 267 1.65 226 1.66
 160  0.080  0.280  0.512- 242 1.64 248 1.65
 161  0.373  0.105  0.569- 274 1.63 221 1.69
 162  0.067  0.697  0.536- 249 1.63 273 1.63
 163  0.666  0.415  0.430- 225 1.65 263 1.65
 164  0.799  0.730  0.564- 255 1.61 240 1.63
 165  0.704  0.957  0.470- 223 1.65 224 1.66
 166  0.598  0.634  0.553- 233 1.62 217 1.63
 167  0.723  0.294  0.452- 238 1.63 263 1.64
 168  0.978  0.314  0.547- 242 1.64 246 1.67
 169  0.158  0.630  0.571- 229 1.63 273 1.65
 170  0.633  0.327  0.508- 245 1.62 263 1.65
 171  0.820  0.396  0.605-  20 0.97 266 1.65
 172  0.959  0.027  0.417- 247 1.64 214 1.65
 173  0.282  0.195  0.519- 272 1.63 250 1.65
 174  0.249  0.443  0.461- 218 1.66 262 1.71
 175  0.272  0.850  0.569- 241 1.64 253 1.65
 176  0.204  0.686  0.487- 229 1.63 244 1.66
 177  0.147  0.476  0.493- 218 1.63 269 1.65
 178  0.224  0.423  0.557- 218 1.61 227 1.63
 179  0.911  0.453  0.474-  18 0.98 213 1.65
 180  0.870  0.705  0.464-  25 0.99 219 1.65
 181  0.738  0.093  0.445-  11 0.98 223 1.66
 182  0.222  0.930  0.408-  28 1.00 226 1.64
 183  0.252  0.403  0.649-  47 0.97 227 1.64
 184  0.630  0.883  0.593-  16 0.99 228 1.62
 185  0.410  0.789  0.423-  38 0.97 230 1.68
 186  0.918  0.196  0.508-  12 0.97 235 1.65
 187  0.133  0.444  0.332-  42 0.98 237 1.65
 188  0.155  0.304  0.311-  30 0.97 237 1.69
 189  0.373  0.131  0.348-  31 0.98 239 1.66
 190  0.035  0.292  0.633-  17 0.97 246 1.66
 191  0.573  0.257  0.320-  13 0.97 251 1.66
 192  0.244  0.770  0.650-  48 0.97 253 1.64
 193  0.207  0.648  0.310-  39 0.97 254 1.65
 194  0.275  0.392  0.367-  40 0.98 262 1.66
 195  0.365  0.598  0.342-  41 0.97 265 1.67
 196  0.226  0.056  0.358-  32 0.97 268 1.69
 197  0.241  0.196  0.329-  29 0.99 268 1.66
 198  0.501  0.892  0.455-  44 0.99 270 1.60
 199  0.550  0.828  0.534-  33 0.97 270 1.67
 200  0.544  0.647  0.634- 217 1.65 252 1.67
 201  0.479  0.122  0.596- 261 1.65 221 1.66
 202  0.263  0.694  0.569- 253 1.65 229 1.65
 203  0.443  0.847  0.582- 260 1.66 212 1.68
 204  0.765  0.617  0.649- 271 1.65 236 1.66
 205  0.845  0.832  0.623- 240 1.66 231 1.68
 206  0.640  0.739  0.621- 217 1.67 228 1.71
 207  0.008  0.033  0.603- 256 1.69 216 1.69
 208  0.284  0.002  0.594- 274 1.69 241 1.70
 209  0.503  0.972  0.629- 260 1.69 261 1.70
 210  0.437  0.424  0.708- 276 1.73
 211  0.083  0.606  0.406- 139 1.65 126 1.65  92 1.67 149 1.68 269 3.13
 212  0.409  0.766  0.575-  90 1.62 129 1.63 104 1.65 203 1.68 253 3.06
 213  0.842  0.441  0.468-  75 1.64 110 1.65 179 1.65 134 1.69
 214  0.017  0.990  0.394-  63 1.65 172 1.65  78 1.65 123 1.65 267 3.11 222 3.13
 215  0.015  0.284  0.391-  80 1.64  79 1.65 157 1.66 132 1.68 242 3.11 222 3.11
 216  0.009  0.115  0.573-  66 1.63 153 1.64  76 1.69 207 1.69 256 2.39 248 3.05 246 3.07
 217  0.609  0.658  0.611- 166 1.63 200 1.65 103 1.67 206 1.67 271 2.87
 218  0.214  0.476  0.510- 178 1.61 177 1.63 137 1.66 174 1.66 229 3.10 262 3.14
 219  0.915  0.756  0.496- 102 1.65 180 1.65  86 1.66  91 1.66 232 2.99 240 3.03
 220  0.521  0.110  0.426- 113 1.64  64 1.65 141 1.66 121 1.67 251 3.08 234 3.12
 221  0.419  0.170  0.589-  84 1.64 201 1.66 101 1.68 161 1.69 274 3.14 261 3.14
 222  0.083  0.139  0.407-  63 1.64 144 1.65  89 1.65 157 1.66 215 3.11 214 3.13 268 3.14
 223  0.702  0.045  0.487-  96 1.64 165 1.65  62 1.65 181 1.66 234 3.09 224 3.10 258 3.15
 224  0.665  0.898  0.437-  95 1.53 165 1.66 125 1.66 156 1.67 270 2.83 257 3.06 223 3.10
 225  0.650  0.504  0.430- 105 1.65 163 1.65  93 1.67  99 1.68 233 3.07
 226  0.198  0.912  0.464- 136 1.50 182 1.64 159 1.66 115 1.67 244 3.01 241 3.06 267 3.07
 227  0.214  0.367  0.604-  83 1.63 178 1.63 107 1.64 183 1.64
 228  0.673  0.813  0.595- 184 1.62 116 1.64  98 1.68 206 1.71 255 2.90
 229  0.217  0.642  0.539- 176 1.63 169 1.63 202 1.65 137 1.65 244 3.09 218 3.10 273 3.12
 230  0.369  0.735  0.459-  73 1.65 104 1.66  57 1.66 185 1.68
 231  0.797  0.888  0.596- 140 1.66  98 1.66 109 1.67 205 1.68 240 2.86 232 3.00 258 3.15
 232  0.880  0.912  0.512-  72 1.60  91 1.62 109 1.65 117 1.65 219 2.99 231 3.00 256 3.05 247 3.13

 233  0.576  0.575  0.512-  99 1.58 166 1.62 100 1.63 133 1.64 243 3.00 225 3.07 275 3.14
 234  0.590  0.115  0.525-  62 1.60 121 1.61 158 1.62 148 1.65 261 2.85 223 3.09 245 3.11 220 3.12

 235  0.858  0.152  0.495- 186 1.65  87 1.65 120 1.66  65 1.69 247 3.07 238 3.15
 236  0.835  0.604  0.646-  59 1.64  71 1.65 154 1.66 204 1.66 271 2.93 240 3.01 266 3.01
 237  0.134  0.360  0.357- 187 1.65  80 1.65  70 1.67 188 1.69 262 3.11
 238  0.791  0.280  0.442- 167 1.63 110 1.65 114 1.67  65 1.67 235 3.15
 239  0.399  0.177  0.396-  64 1.65 122 1.65 189 1.66  74 1.67 259 3.07
 240  0.856  0.750  0.597- 164 1.63  86 1.64  71 1.64 205 1.66 231 2.86 236 3.01 219 3.03
 241  0.283  0.935  0.550- 115 1.58 175 1.64  60 1.68 208 1.70 274 2.38 226 3.06
 242  0.023  0.330  0.502- 160 1.64 168 1.64  82 1.65 132 1.66 246 3.11 215 3.11 248 3.13
 243  0.575  0.695  0.436-  68 1.51 100 1.52 146 1.65  88 1.68 233 3.00 270 3.06 257 3.10
 244  0.230  0.753  0.452- 136 1.63 176 1.66  81 1.66  73 1.67 254 2.97 226 3.01 229 3.09
 245  0.594  0.284  0.548- 170 1.62 111 1.63 158 1.64 142 1.64 234 3.11 263 3.15
 246  0.975  0.272  0.603-  97 1.63  66 1.65 190 1.66 168 1.67 216 3.07 242 3.11
 247  0.889  0.025  0.424-  87 1.64 172 1.64  72 1.65 143 1.66 235 3.07 232 3.13
 248  0.105  0.195  0.518- 145 1.61 144 1.62 153 1.64 160 1.65 216 3.05 242 3.13
 249  0.048  0.733  0.483- 162 1.63 102 1.65  94 1.65 126 1.66 267 3.05 273 3.15
 250  0.232  0.206  0.561- 135 1.62  83 1.63 145 1.63 173 1.65 272 3.03
 251  0.561  0.258  0.381- 118 1.45 113 1.59 155 1.66 191 1.66 259 2.87 220 3.08
 252  0.476  0.628  0.622- 129 1.63 124 1.66 200 1.67  85 1.68 275 3.01 276 3.02
 253  0.281  0.771  0.598- 192 1.64  90 1.64 202 1.65 175 1.65 212 3.06
 254  0.209  0.643  0.372- 193 1.65 150 1.67  81 1.67 149 1.68 244 2.97
 255  0.740  0.711  0.536- 164 1.61 106 1.63 130 1.63 116 1.63 228 2.90 257 2.91 271 3.07
 256  0.987  0.991  0.550-  61 1.63 117 1.65  76 1.68 207 1.69 216 2.39 232 3.05
 257  0.703  0.737  0.434-  95 1.65 128 1.65 146 1.66 130 1.69 255 2.91 224 3.06 243 3.10
 258  0.788  0.059  0.577-  96 1.64 131 1.64 120 1.66 140 1.68 223 3.15 231 3.15
 259  0.456  0.328  0.409- 147 1.66 118 1.66  74 1.67 151 1.69 251 2.87 239 3.07
 260  0.450  0.936  0.594-  69 1.65 203 1.66 119 1.69 209 1.69 261 2.36 274 2.74
 261  0.509  0.041  0.586- 148 1.62 201 1.65 119 1.70 209 1.70 260 2.36 234 2.85 221 3.14
 262  0.244  0.370  0.421-  67 1.65  70 1.66 194 1.66 174 1.71 237 3.11 218 3.14
 263  0.659  0.330  0.450- 167 1.64 155 1.65 163 1.65 170 1.65 245 3.15
 264  0.461  0.318  0.529- 111 1.61 151 1.65 101 1.68 127 1.70
 265  0.337  0.590  0.399- 150 1.65 195 1.67  58 1.67  57 1.68
 266  0.803  0.476  0.580-  75 1.63 171 1.65 154 1.66 112 1.66 271 2.90 236 3.01
 267  0.069  0.899  0.481-  94 1.50  78 1.64 159 1.65  61 1.66 249 3.05 226 3.07 214 3.11
 268  0.212  0.144  0.374-  89 1.65 152 1.65 197 1.66 196 1.69 272 3.12 222 3.14
 269  0.078  0.494  0.495- 108 1.63  82 1.64 177 1.65  92 1.66 273 3.09 211 3.13
 270  0.558  0.852  0.475- 156 1.29 198 1.60  68 1.66 199 1.67 224 2.83 243 3.06
 271  0.718  0.585  0.610- 106 1.64 103 1.64 204 1.65 112 1.65 217 2.87 266 2.90 236 2.93 255 3.07

 272  0.287  0.210  0.459- 173 1.63 122 1.63  67 1.66 152 1.67 250 3.03 268 3.12
 273  0.088  0.625  0.568- 162 1.63 138 1.63 108 1.64 169 1.65 269 3.09 229 3.12 249 3.15
 274  0.353  0.019  0.579- 161 1.63  69 1.66 208 1.69  60 1.70 241 2.38 260 2.74 221 3.14
 275  0.489  0.480  0.573- 133 1.63  77 1.67 127 1.67  85 1.68 252 3.01 233 3.14 276 3.16
 276  0.483  0.494  0.690- 210 1.73   2 1.92 124 1.96  77 1.99 252 3.02 275 3.16

  LATTYP: Found a simple orthorhombic cell.
 ALAT       =    18.1212369514
 B/A-ratio  =     1.2919258579
 C/A-ratio  =     1.4835282260
  
  Lattice vectors:
  
 A1 = (   0.0000000000, -18.1212369514,   0.0000000000)
 A2 = ( -23.4112945954,   0.0000000000,   0.0000000000)
 A3 = (   0.0000000000,   0.0000000000, -26.8833665073)


Analysis of symmetry for initial positions (statically):
=====================================================================
 Subroutine PRICEL returns:
 Original cell was already a primitive cell.
 

 Routine SETGRP: Setting up the symmetry group for a 
 simple orthorhombic supercell.


 Subroutine GETGRP returns: Found  1 space group operations
 (whereof  1 operations were pure point group operations)
 out of a pool of  8 trial point group operations.


The static configuration has the point symmetry C_1 .


Analysis of symmetry for dynamics (positions and initial velocities):
=====================================================================
 Subroutine PRICEL returns:
 Original cell was already a primitive cell.
 

 Routine SETGRP: Setting up the symmetry group for a 
 simple orthorhombic supercell.


 Subroutine GETGRP returns: Found  1 space group operations
 (whereof  1 operations were pure point group operations)
 out of a pool of  8 trial point group operations.


The dynamic configuration has the point symmetry C_1 .


Analysis of constrained symmetry for selective dynamics:
=====================================================================
 Subroutine PRICEL returns:
 Original cell was already a primitive cell.
 

 Routine SETGRP: Setting up the symmetry group for a 
 simple orthorhombic supercell.


 Subroutine GETGRP returns: Found  1 space group operations
 (whereof  1 operations were pure point group operations)
 out of a pool of  8 trial point group operations.


The constrained configuration has the point symmetry C_1 .


 Subroutine INISYM returns: Found  1 space group operations
 (whereof  1 operations are pure point group operations),
 and found     1 'primitive' translations



 KPOINTS: KPOINTS created by Atomic Simulation Env

Automatic generation of k-mesh.
Space group operators:
 irot       det(A)        alpha          n_x          n_y          n_z        tau_x        tau_y        tau_z
    1     1.000000     0.000000     1.000000     0.000000     0.000000     0.000000     0.000000     0.000000
 
 Subroutine IBZKPT returns following result:
 ===========================================
 
 Found      5 irreducible k-points:
 
 Following reciprocal coordinates:
            Coordinates               Weight
  0.000000  0.000000  0.000000      1.000000
  0.333333  0.000000  0.000000      2.000000
  0.000000  0.333333  0.000000      2.000000
  0.333333  0.333333  0.000000      2.000000
 -0.333333  0.333333  0.000000      2.000000
 
 Following cartesian coordinates:
            Coordinates               Weight
  0.000000  0.000000  0.000000      1.000000
  0.014238  0.000000  0.000000      2.000000
  0.000000  0.018395  0.000000      2.000000
  0.014238  0.018395  0.000000      2.000000
 -0.014238  0.018395  0.000000      2.000000
 


--------------------------------------------------------------------------------------------------------




 Dimension of arrays:
   k-points           NKPTS =      5   k-points in BZ     NKDIM =      5   number of bands    NBANDS=    768
   number of dos      NEDOS =    301   number of ions     NIONS =    276
   non local maximal  LDIM  =      6   non local SUM 2l+1 LMDIM =     18
   total plane-waves  NPLWV = ******
   max r-space proj   IRMAX =   2748   max aug-charges    IRDMAX=   9808
   dimension x,y,z NGX =   128 NGY =  100 NGZ =  150
   dimension x,y,z NGXF=   256 NGYF=  200 NGZF=  300
   support grid    NGXF=   256 NGYF=  200 NGZF=  300
   ions per type =               4  52 154  65   1
   NGX,Y,Z   is equivalent  to a cutoff of   9.09,  9.17,  9.28 a.u.
   NGXF,Y,Z  is equivalent  to a cutoff of  18.18, 18.35, 18.55 a.u.

 SYSTEM =  unknown system                          
 POSCAR =  C  H  O  Si W                           

 Startparameter for this run:
   NWRITE =      2    write-flag & timer
   PREC   = normal    normal or accurate (medium, high low for compatibility)
   ISTART =      0    job   : 0-new  1-cont  2-samecut
   ICHARG =      2    charge: 1-file 2-atom 10-const
   ISPIN  =      1    spin polarized calculation?
   LNONCOLLINEAR =      F non collinear calculations
   LSORBIT =      F    spin-orbit coupling
   INIWAV =      1    electr: 0-lowe 1-rand  2-diag
   LASPH  =      T    aspherical Exc in radial PAW
   METAGGA=      F    non-selfconsistent MetaGGA calc.

 Electronic Relaxation 1
   ENCUT  =  500.0 eV  36.75 Ry    6.06 a.u.  42.68 33.04 49.01*2*pi/ulx,y,z
   ENINI  =  500.0     initial cutoff
   ENAUG  =  644.9 eV  augmentation charge cutoff
   NELM   =     60;   NELMIN=  2; NELMDL=  0     # of ELM steps 
   EDIFF  = 0.1E-03   stopping-criterion for ELM
   LREAL  =      T    real-space projection
   NLSPLINE    = F    spline interpolate recip. space projectors
   LCOMPAT=      F    compatible to vasp.4.4
   GGA_COMPAT  = T    GGA compatible to vasp.4.4-vasp.4.6
   LMAXPAW     = -100 max onsite density
   LMAXMIX     =    2 max onsite mixed and CHGCAR
   VOSKOWN=      0    Vosko Wilk Nusair interpolation
   ROPT   =   -0.00050  -0.00050  -0.00050  -0.00050
   ROPT   =   -0.00050
 Ionic relaxation
   EDIFFG = -.5E-01   stopping-criterion for IOM
   NSW    =    150    number of steps for IOM
   NBLOCK =      1;   KBLOCK =    150    inner block; outer block 
   IBRION =      1    ionic relax: 0-MD 1-quasi-New 2-CG
   NFREE  =      0    steps in history (QN), initial steepest desc. (CG)
   ISIF   =      0    stress and relaxation
   IWAVPR =     11    prediction:  0-non 1-charg 2-wave 3-comb
   ISYM   =      2    0-nonsym 1-usesym 2-fastsym
   LCORR  =      T    Harris-Foulkes like correction to forces

   POTIM  = 0.5000    time-step for ionic-motion
   TEIN   =    0.0    initial temperature
   TEBEG  =    0.0;   TEEND  =   0.0 temperature during run
   SMASS  =  -3.00    Nose mass-parameter (am)
   estimated Nose-frequenzy (Omega)   =  0.10E-29 period in steps =****** mass=  -0.125E-25a.u.
   SCALEE = 1.0000    scale energy and forces
   NPACO  =    256;   APACO  = 16.0  distance and # of slots for P.C.
   PSTRESS=    0.0 pullay stress

  Mass of Ions in am
   POMASS =  12.01  1.00 16.00 28.09183.85
  Ionic Valenz
   ZVAL   =   4.00  1.00  6.00  4.00  6.00
  Atomic Wigner-Seitz radii
   RWIGS  =  -1.00 -1.00 -1.00 -1.00 -1.00
  virtual crystal weights 
   VCA    =   1.00  1.00  1.00  1.00  1.00
   NELECT =    1258.0000    total number of electrons
   NUPDOWN=      -1.0000    fix difference up-down

 DOS related values:
   EMIN   =  10.00;   EMAX   =-10.00  energy-range for DOS
   EFERMI =   0.00
   ISMEAR =     0;   SIGMA  =   0.20  broadening in eV -4-tet -1-fermi 0-gaus

 Electronic relaxation 2 (details)
   IALGO  =     68    algorithm
   LDIAG  =      T    sub-space diagonalisation (order eigenvalues)
   LSUBROT=      F    optimize rotation matrix (better conditioning)
   TURBO    =      0    0=normal 1=particle mesh
   IRESTART =      0    0=no restart 2=restart with 2 vectors
   NREBOOT  =      0    no. of reboots
   NMIN     =      0    reboot dimension
   EREF     =   0.00    reference energy to select bands
   IMIX   =      4    mixing-type and parameters
     AMIX     =   0.40;   BMIX     =  1.00
     AMIX_MAG =   1.60;   BMIX_MAG =  1.00
     AMIN     =   0.10
     WC   =   100.;   INIMIX=   1;  MIXPRE=   1;  MAXMIX= -45

 Intra band minimization:
   WEIMIN = 0.0010     energy-eigenvalue tresh-hold
   EBREAK =  0.33E-07  absolut break condition
   DEPER  =   0.30     relativ break condition  

   TIME   =   0.40     timestep for ELM

  volume/ion in A,a.u.               =      41.32       278.86
  Fermi-wavevector in a.u.,A,eV,Ry     =   0.785120  1.483662  8.386815  0.616413
  Thomas-Fermi vector in A             =   1.889391

 Write flags
   LWAVE        =      F    write WAVECAR
   LDOWNSAMPLE  =      F    k-point downsampling of WAVECAR
   LCHARG       =      F    write CHGCAR
   LVTOT        =      F    write LOCPOT, total local potential
   LVHAR        =      F    write LOCPOT, Hartree potential only
   LELF         =      F    write electronic localiz. function (ELF)
   LORBIT       =      0    0 simple, 1 ext, 2 COOP (PROOUT), +10 PAW based schemes


 Dipole corrections
   LMONO  =      F    monopole corrections only (constant potential shift)
   LDIPOL =      T    correct potential (dipole corrections)
   IDIPOL =      3    1-x, 2-y, 3-z, 4-all directions 
   EPSILON=  1.0000000 bulk dielectric constant

 Exchange correlation treatment:
   GGA     =    RP    GGA type
   LEXCH   =     9    internal setting for exchange type
   VOSKOWN=      0    Vosko Wilk Nusair interpolation
   LHFCALC =     F    Hartree Fock is set to
   LHFONE  =     F    Hartree Fock one center treatment
   AEXX    =    0.0000 exact exchange contribution

 Linear response parameters
   LEPSILON=     F    determine dielectric tensor
   LRPA    =     F    only Hartree local field effects (RPA)
   LNABLA  =     F    use nabla operator in PAW spheres
   LVEL    =     F    velocity operator in full k-point grid
   LINTERFAST=   F  fast interpolation
   KINTER  =     0    interpolate to denser k-point grid
   CSHIFT  =0.1000    complex shift for real part using Kramers Kronig
   OMEGAMAX=  -1.0    maximum frequency
   DEG_THRESHOLD= 0.2000000E-02 threshold for treating states as degnerate
   RTIME   =   -0.100 relaxation time in fs
  (WPLASMAI=    0.000 imaginary part of plasma frequency in eV, 0.658/RTIME)
   DFIELD  = 0.0000000 0.0000000 0.0000000 field for delta impulse in time

 Orbital magnetization related:
   ORBITALMAG=     F  switch on orbital magnetization
   LCHIMAG   =     F  perturbation theory with respect to B field
   DQ        =  0.001000  dq finite difference perturbation B field
   LLRAUG    =     F  two centre corrections for induced B field



--------------------------------------------------------------------------------------------------------


 quasi-Newton-method for relaxation of ions
   using selective dynamics as specified on POSCAR
 charge density and potential will be updated during run
 non-spin polarized calculation
 RMM-DIIS sequential band-by-band and
  variant of blocked Davidson during initial phase
 perform sub-space diagonalisation
    before iterative eigenvector-optimisation
 modified Broyden-mixing scheme, WC =      100.0
 initial mixing is a Kerker type mixing with AMIX =  0.4000 and BMIX =      1.0000
 Hartree-type preconditioning will be used
 using additional bands          139
 real space projection scheme for non local part
 use partial core corrections
 calculate Harris-corrections to forces   (improved forces if not selfconsistent)
 use gradient corrections 
 use of overlap-Matrix (Vanderbilt PP)
 Gauss-broadening in eV      SIGMA  =   0.20


--------------------------------------------------------------------------------------------------------


  energy-cutoff  :      500.00
  volume of cell :    11405.04
      direct lattice vectors                 reciprocal lattice vectors
    23.411294595  0.000000000  0.000000000     0.042714426  0.000000000  0.000000000
     0.000000000 18.121236951  0.000000000     0.000000000  0.055183871  0.000000000
     0.000000000  0.000000000 26.883366507     0.000000000  0.000000000  0.037197722

  length of vectors
    23.411294595 18.121236951 26.883366507     0.042714426  0.055183871  0.037197722



 k-points in units of 2pi/SCALE and weight: KPOINTS created by Atomic Simulation Env
   0.00000000  0.00000000  0.00000000       0.111
   0.01423814  0.00000000  0.00000000       0.222
   0.00000000  0.01839462  0.00000000       0.222
   0.01423814  0.01839462  0.00000000       0.222
  -0.01423814  0.01839462  0.00000000       0.222

 k-points in reciprocal lattice and weights: KPOINTS created by Atomic Simulation Env
   0.00000000  0.00000000  0.00000000       0.111
   0.33333333  0.00000000  0.00000000       0.222
   0.00000000  0.33333333  0.00000000       0.222
   0.33333333  0.33333333  0.00000000       0.222
  -0.33333333  0.33333333  0.00000000       0.222

 position of ions in fractional coordinates (direct lattice) 
   0.56032366  0.43752899  0.77687685
   0.54251840  0.49417234  0.73815100
   0.55228772  0.35607978  0.76221205
   0.57551646  0.56704117  0.74193793
   0.76065455  0.10289322  0.65124950
   0.92642768  0.27866896  0.35633493
   0.79333970  0.20727890  0.37345652
   0.97453911  0.94360860  0.32530279
   0.62573266  0.96347285  0.37523120
   0.82053840  0.99500666  0.36899263
   0.74999307  0.14117876  0.45803819
   0.91539322  0.24944796  0.50942840
   0.58349286  0.30426355  0.30592717
   0.89145220  0.33468963  0.61602415
   0.58785241  0.36029154  0.61409593
   0.59300590  0.86994030  0.57794770
   0.03421421  0.33808268  0.65171927
   0.93527051  0.41951423  0.45410146
   0.74613838  0.53031199  0.42248819
   0.79766324  0.38211650  0.63458040
   0.59110202  0.56868283  0.37803474
   0.71843379  0.64593279  0.38346059
   0.84115291  0.54242660  0.41959617
   0.00476455  0.60379815  0.35777830
   0.82835870  0.71235667  0.46794226
   0.87754264  0.59885086  0.72107915
   0.51999031  0.98556476  0.42170307
   0.22309457  0.98015484  0.39320502
   0.21637369  0.23785146  0.31923033
   0.15750105  0.32980623  0.27898292
   0.34154688  0.15558571  0.33077276
   0.22271586  0.04575893  0.32273843
   0.51082966  0.82608437  0.54649939
   0.38775163  0.24728868  0.64925987
   0.24326880  0.09296722  0.59873696
   0.31538097  0.48713646  0.44243467
   0.40895618  0.43873486  0.40569060
   0.39849950  0.79311361  0.38878680
   0.24420236  0.65543008  0.29432688
   0.31174138  0.41847571  0.36925764
   0.40547429  0.58427965  0.33881989
   0.13935762  0.48797365  0.35192946
   0.59326935  0.69798713  0.35239799
   0.46900683  0.86142747  0.44382838
   0.12206377  0.32276041  0.61151688
   0.07314872  0.66466667  0.64585907
   0.24512711  0.38298779  0.68212867
   0.24453194  0.81490273  0.66923061
   0.60588989  0.44784835  0.78523749
   0.53715718  0.44921782  0.81189583
   0.56840019  0.31983404  0.79191557
   0.50703994  0.34328873  0.75585331
   0.57592427  0.34354020  0.72783876
   0.57284713  0.58677485  0.78078487
   0.62093736  0.55803854  0.73294238
   0.55955197  0.61137584  0.71792266
   0.36894173  0.64835510  0.43900002
   0.34681565  0.50403387  0.42038813
   0.86063064  0.56610936  0.69668184
   0.34871820  0.95836520  0.53081764
   0.03343994  0.93254428  0.52853880
   0.63635548  0.07886855  0.48937667
   0.06864615  0.05226542  0.39511073
   0.45189954  0.12956232  0.42059728
   0.80588415  0.21365018  0.48316661
   0.97312727  0.18154159  0.59878481
   0.27476529  0.29917287  0.44851223
   0.55635417  0.77509129  0.44175101
   0.39200516  0.97313928  0.61978594
   0.17751724  0.34996845  0.40527312
   0.86640494  0.68406910  0.63729873
   0.86569601  0.96717693  0.46703846
   0.30104714  0.76093683  0.45792526
   0.42161095  0.26125222  0.37959630
   0.81103736  0.46548432  0.52007656
   0.98356656  0.07277352  0.52123675
   0.51981818  0.46121518  0.62699124
   0.03453641  0.91994776  0.42940526
   0.96303654  0.30319531  0.35125762
   0.06962669  0.33610577  0.37637178
   0.20829566  0.72864429  0.39536010
   0.03890126  0.41910192  0.49910875
   0.23951996  0.28586047  0.58784463
   0.39675348  0.19556915  0.64451897
   0.45491664  0.56014208  0.58365773
   0.90971559  0.74917267  0.55749263
   0.86912727  0.10804334  0.44227833
   0.57257679  0.66733185  0.37613173
   0.14242656  0.15912550  0.37597224
   0.35003547  0.76620763  0.60683568
   0.91099605  0.84504757  0.48317962
   0.06133801  0.53687171  0.44225348
   0.70833903  0.55516655  0.41995768
   0.07548726  0.81680680  0.48299416
   0.70046477  0.82755572  0.43263529
   0.73007245  0.04891383  0.54302540
   0.91881799  0.30178935  0.63203723
   0.73479411  0.85293057  0.61280749
   0.62512195  0.52739400  0.48637871
   0.55657330  0.62970304  0.46724942
   0.42662452  0.24711054  0.55570529
   0.97829009  0.72824363  0.47679564
   0.65391820  0.59431032  0.63337299
   0.39652223  0.74696322  0.51533556
   0.60269007  0.51766545  0.38567099
   0.71963549  0.63090089  0.55696172
   0.14679531  0.36398296  0.61988057
   0.06611237  0.54852596  0.54193629
   0.81885389  0.88459155  0.53661528
   0.82821553  0.35538514  0.45190334
   0.52799511  0.29777543  0.53079915
   0.73666773  0.49910606  0.59547139
   0.55743394  0.17243111  0.39490854
   0.80596408  0.25641257  0.38329286
   0.23744622  0.95325075  0.50791956
   0.69256112  0.77580888  0.54152908
   0.92383515  0.94978091  0.55298039
   0.52573722  0.31778112  0.39855594
   0.46837568  0.99021636  0.54612828
   0.83748432  0.09510833  0.53988347
   0.53790325  0.11641749  0.48623709
   0.35019344  0.18660873  0.43963639
   0.01176032  0.96241390  0.33524376
   0.45471803  0.59403267  0.67694668
   0.65496522  0.92539750  0.37922825
   0.07629334  0.68602626  0.43588102
   0.45421763  0.40374495  0.55384990
   0.71921944  0.70042085  0.37958300
   0.44954258  0.70370684  0.59985005
   0.75255106  0.70932458  0.47629548
   0.77841629  0.12071811  0.62095597
   0.99327462  0.30801347  0.44840298
   0.53292423  0.50866912  0.53001579
   0.81677759  0.49906173  0.42344221
   0.23531987  0.14497708  0.60542035
   0.20353331  0.83070132  0.47053363
   0.23998326  0.55875894  0.52283024
   0.06112300  0.62542521  0.62371074
   0.04607407  0.60234669  0.35417863
   0.80062272  0.97861315  0.60574839
   0.53799091  0.02769749  0.40450275
   0.60449451  0.31298594  0.60504025
   0.86154611  0.00408085  0.36920633
   0.09491131  0.14902284  0.46708233
   0.17146858  0.20404005  0.53086549
   0.64098865  0.70443872  0.45481558
   0.43678778  0.40976848  0.38641325
   0.57430895  0.05851280  0.57109885
   0.15143775  0.59340802  0.38895836
   0.26773979  0.60233753  0.39230630
   0.44025846  0.32219818  0.47032443
   0.23800967  0.15851113  0.42990119
   0.07278668  0.15030568  0.56258773
   0.84482076  0.54415973  0.59972701
   0.62117943  0.27993988  0.41090545
   0.60266699  0.89152667  0.46722346
   0.03138539  0.19528983  0.38899188
   0.60797482  0.19535039  0.54752998
   0.13279973  0.93835464  0.47948708
   0.08025800  0.28040450  0.51158073
   0.37268222  0.10473343  0.56908794
   0.06664142  0.69698633  0.53571147
   0.66648838  0.41538488  0.43001156
   0.79927307  0.72954675  0.56412806
   0.70383856  0.95720843  0.47018456
   0.59770654  0.63374363  0.55319026
   0.72284030  0.29368465  0.45166811
   0.97753782  0.31415863  0.54724083
   0.15828632  0.62980658  0.57062543
   0.63333384  0.32678308  0.50780070
   0.81955997  0.39633916  0.60548790
   0.95857820  0.02724304  0.41695300
   0.28206737  0.19497743  0.51867603
   0.24925755  0.44303289  0.46105570
   0.27180342  0.85002206  0.56899720
   0.20366815  0.68557317  0.48688872
   0.14712345  0.47606988  0.49254493
   0.22443903  0.42273459  0.55682840
   0.91141698  0.45274460  0.47371881
   0.86978818  0.70456011  0.46415352
   0.73812021  0.09283462  0.44522965
   0.22218344  0.92978119  0.40794682
   0.25201982  0.40276447  0.64917161
   0.62996509  0.88263639  0.59342970
   0.41022327  0.78906239  0.42343739
   0.91777135  0.19603829  0.50824515
   0.13254706  0.44353611  0.33227266
   0.15514768  0.30352326  0.31056042
   0.37300515  0.13090704  0.34795342
   0.03455466  0.29187169  0.63346998
   0.57268926  0.25686819  0.32009968
   0.24438939  0.76984089  0.64975435
   0.20737430  0.64840505  0.31036906
   0.27537441  0.39219130  0.36737583
   0.36535081  0.59758663  0.34222079
   0.22638085  0.05618082  0.35811888
   0.24120334  0.19607823  0.32934297
   0.50127293  0.89230162  0.45484168
   0.54986966  0.82759418  0.53430015
   0.54429998  0.64718765  0.63398772
   0.47857346  0.12194545  0.59612325
   0.26250001  0.69432624  0.56853539
   0.44253850  0.84724483  0.58160625
   0.76537625  0.61677847  0.64941609
   0.84460271  0.83163387  0.62301442
   0.63962844  0.73934927  0.62111607
   0.00815689  0.03344584  0.60298909
   0.28438281  0.00199789  0.59384581
   0.50348505  0.97174534  0.62853671
   0.43698430  0.42441206  0.70831756
   0.08322528  0.60642030  0.40641308
   0.40856819  0.76596719  0.57462668
   0.84176382  0.44145312  0.46783897
   0.01708949  0.99048204  0.39361135
   0.01470021  0.28419027  0.39108141
   0.00927994  0.11508710  0.57251528
   0.60915211  0.65750911  0.61082167
   0.21398180  0.47589259  0.50974266
   0.91506213  0.75556094  0.49625454
   0.52057854  0.11045563  0.42598659
   0.41875709  0.16965344  0.58936421
   0.08345253  0.13917208  0.40698087
   0.70189793  0.04484625  0.48732303
   0.66505935  0.89803746  0.43747644
   0.65009874  0.50402706  0.43015089
   0.19846065  0.91248223  0.46399069
   0.21440206  0.36656881  0.60361440
   0.67339384  0.81332054  0.59463033
   0.21663922  0.64156275  0.53852972
   0.36878912  0.73512773  0.45920930
   0.79728748  0.88840080  0.59559316
   0.87980421  0.91227025  0.51199136
   0.57637654  0.57462327  0.51172604
   0.58989621  0.11549182  0.52520389
   0.85812234  0.15211323  0.49517595
   0.83534606  0.60360854  0.64583439
   0.13373852  0.36031890  0.35687228
   0.79065529  0.27993925  0.44187265
   0.39917610  0.17749484  0.39600320
   0.85592384  0.75006980  0.59651919
   0.28278170  0.93473346  0.54978399
   0.02307473  0.33044751  0.50224551
   0.57455938  0.69549008  0.43556436
   0.23024095  0.75260050  0.45196954
   0.59375530  0.28380040  0.54810087
   0.97518409  0.27230789  0.60265401
   0.88890636  0.02540900  0.42420019
   0.10474772  0.19548672  0.51774254
   0.04814566  0.73303709  0.48263019
   0.23195673  0.20569664  0.56112661
   0.56140781  0.25778527  0.38122611
   0.47592481  0.62756028  0.62245634
   0.28083723  0.77052056  0.59777666
   0.20850083  0.64339984  0.37179454
   0.74034142  0.71056748  0.53582974
   0.98656372  0.99063761  0.55036226
   0.70310456  0.73681815  0.43426040
   0.78778803  0.05939321  0.57681202
   0.45631390  0.32845159  0.40928789
   0.44955635  0.93616142  0.59448703
   0.50866241  0.04091404  0.58596082
   0.24424715  0.37040632  0.42094710
   0.65852534  0.33000211  0.45034791
   0.46088289  0.31789826  0.52877512
   0.33729937  0.58994254  0.39908301
   0.80308322  0.47644868  0.57971680
   0.06920979  0.89885916  0.48050551
   0.21190758  0.14445432  0.37359659
   0.07823286  0.49398500  0.49468762
   0.55757019  0.85234010  0.47473025
   0.71816469  0.58461634  0.60953186
   0.28664212  0.21010174  0.45911077
   0.08808158  0.62546515  0.56762490
   0.35330542  0.01924020  0.57856476
   0.48860778  0.47971160  0.57270393
   0.48250853  0.49394747  0.68961391

 position of ions in cartesian coordinates  (Angst):
  13.11790224  7.92856648 20.88506497
  12.70105801  8.95501400 19.84398384
  12.92977061  6.45260607 20.49082589
  13.47358536 10.27548741 19.94578917
  17.80790783  1.86455236 17.50777908
  21.68887124  5.04982631  9.57948250
  18.57310935  3.75615001 10.03976840
  22.81522226 17.09935504  8.74523415
  14.64921175 17.45931981 10.08747787
  19.20986618 18.03075152  9.91976410
  17.55830880  2.55833369 12.31360861
  21.43054036  4.52030552 13.69515047
  13.66032332  5.51363182  8.22435231
  20.87005001  6.06499016 16.56080300
  13.76238590  6.52892828 16.50896587
  13.88303591 15.76439434 15.53717974
   0.80099892  6.12647638 17.52040804
  21.89589338  7.60211669 12.20777585
  17.46806539  9.60990927 11.35790489
  18.67432913  6.92442368 17.05965757
  13.83846347 10.30523625 10.16284657
  16.81946503 11.70510107 10.30871170
  19.69247867  9.82944088 11.28015755
   0.11154425 10.94156933  9.61828518
  19.39294954 12.90878407 12.57986315
  20.54440936 10.85191838 19.38503497
  12.17364643 17.85965258 11.33679820
   5.22293275 17.76161802 10.57067472
   5.06558822  4.31016263  8.58198589
   3.68730349  5.97649684  7.50000000
   7.99605455  2.81940544  8.89228530
   5.21406665  0.82920834  8.67629559
  11.95918371 14.96967067 14.69174348
   9.07776771  4.48117673 17.45429109
   5.69523763  1.68468105 16.09606514
   7.38347683  8.82751530 11.89413327
   9.57419369  7.95041833 10.90632902
   9.32938927 14.37219961 10.45189795
   5.71709332 11.87720376  7.91249741
   7.29826932  7.58329756  9.92688859
   9.49267817 10.58787005  9.10861924
   3.26254231  8.84268608  9.46104865
  13.88920341 12.64839014  9.47364424
  10.98005707 15.61013129 11.93160111
   2.85767097  5.84881792 16.43963243
   1.71250615 12.04458215 17.36286620
   5.73874305  6.94021244 18.33791508
   5.72480923 14.76704547 17.99117183
  14.18466682  8.11556605 21.10982736
  12.57554506  8.14038253 21.82649312
  13.30698433  5.79578842 21.28935652
  11.87046151  6.22081634 20.31988146
  13.48313286  6.22537344 19.56675603
  13.41109298 10.63308611 20.99012590
  14.53694736 10.11234855 19.70395870
  13.09983595 11.07888655 19.30017794
   8.63740362 11.74899635 11.80179838
   8.11940335  9.13371715 11.30144811
  20.14847750 10.25860181 18.72915315
   8.16394463 17.36676287 14.27016525
   0.78287218 16.89885583 14.20890220
  14.89790566  1.42919560 13.15609244
   1.60709516  0.94711409 10.62190669
  10.57955332  2.34782959 11.30707087
  18.86679123  3.87160553 12.98914499
  22.78216923  3.28975812 16.09735158
   6.43261122  5.42138249 12.05751853
  13.02497128 14.04561295 11.87575437
   9.17734817 17.63448745 16.66193270
   4.15590840  6.34186120 10.89510594
  20.28366135 12.39617819 17.13273535
  20.26706433 17.52644236 12.55556607
   7.04790320 13.78911669 12.31057251
   9.87045805  4.73421333 10.20482654
  18.98743460  8.43515170 13.98140876
  23.02656642  1.31874615 14.01259849
  12.16961656  8.35778950 16.85563533
   0.80854198 16.67059137 11.54385891
  22.54593219  5.49427402  9.44298747
   1.63005096  6.09065222 10.11814055
   4.87647100 13.20393591 10.62861051
   0.91072893  7.59464512 13.41772355
   5.60747230  5.18014536 15.80324268
   9.28851272  3.54395488 17.32683960
  10.65018751 10.15046731 15.69068475
  21.29761956 13.57593551 14.98727863
  20.34739459  1.95787901 11.88993046
  13.40476402 12.09287863 10.11168720
   3.33439013  2.88355087 10.10739962
   8.19478343 13.88462994 16.31378586
  21.32759690 15.31330728 12.98949491
   1.43600223  9.72877939 11.88926245
  16.58313365 10.06030463 11.28987623
   1.76725442 14.80154966 12.98450890
  16.39878711 14.99633320 11.63069310
  17.09194121  0.88637903 14.59835090
  21.51071858  5.46879628 16.99128861
  17.20248126 15.45615697 16.47432839
  14.63491423  9.55703168 13.07549710
  13.03010146 11.41099800 12.56123752
   9.98783228  4.47794874 14.93922900
  22.90303759 13.19667544 12.81787194
  15.30907172 10.76963807 17.02719823
   9.28309872 13.53589751 13.85395475
  14.10975474  9.38073831 10.36813464
  16.84759854 11.43270444 14.97300602
   3.43666813  6.59582138 16.66447654
   1.54777614  9.93996898 14.56907188
  19.17042960 16.02989302 14.42602513
  19.38959778  6.44001838 12.14868300
  12.36104902  5.39605907 14.26966811
  17.24634519  9.04441911 16.00827550
  13.05025010  3.12466491 10.61647095
  18.86866258  4.64651295 10.30420244
   5.55892333 17.27408272 13.65458756
  16.21375252 14.05861663 14.55812470
  21.62817688 17.21120490 14.86597461
  12.30818899  5.75858697 10.71452528
  10.96528106 17.94394526 14.68176678
  19.60659214  1.72348061 14.51388526
  12.59301152  2.10962891 13.07168996
   8.19848185  3.38158106 11.81890631
   0.27532438 17.44013033  9.01248080
  10.64553780 10.76460684 18.19860567
  15.33358375 16.76934745 10.19493214
   1.78612593 12.43164437 11.71794928
  10.63382278  7.31635794 14.88934986
  16.83785811 12.69249221 10.20446890
  10.52437380 12.75203847 16.12598871
  17.61819454 12.85383871 12.80442605
  18.22373313  2.18756155 16.69338702
  23.25384464  5.58158514 12.05458163
  12.47644605  9.21771371 14.24860884
  19.12182067  9.04361594 11.38355200
   5.50914289  2.62716393 16.27573712
   4.76497818 15.05333538 12.64952801
   5.61831888 10.12540308 14.05543696
   1.43096845 11.33347839 16.76744455
   1.07865368 10.91526714  9.52151395
  18.74361443 17.73368082 16.28455610
  12.59506368  0.50191281 10.87439573
  14.15199894  5.67169230 16.26551891
  20.16990973  0.07395004  9.92550906
   2.22199659  2.70047811 12.55674536
   4.01430147  3.69745801 14.27145162
  15.00637423 12.76530097 12.22697399
  10.22576747  7.42551174 10.38808912
  13.44531608  1.06032424 15.35305972
   3.54535369 10.75328740 10.45651017
   6.26813510 10.91510113 10.54651395
  10.30702051  5.83862961 12.64390410
   5.57211440  2.87241773 11.55719116
   1.70403031  2.72372480 15.12425227
  19.77834770  9.86084743 16.12268090
  14.54261460  5.07285684 11.04652184
  14.10921452 16.15556596 12.56053950
   0.73477264  3.53889327 10.45741115
  14.23347751  3.53999077 14.71944916
   3.10901352 17.00414686 12.89022683
   1.87894360  5.08127631 13.75301231
   8.72497328  1.89789931 15.29899979
   1.56016182 12.63025445 14.40172777
  15.60335582  7.52728779 11.56015827
  18.71201732 13.22028944 15.16566130
  16.47777184 17.34580083 12.64014391
  13.99308392 11.48421857 14.87161649
  16.92262721  5.32192921 12.14235921
  22.88542589  5.69294302 14.71167575
   3.70568763 11.41287419 15.34033256
  14.82716522  5.92171361 13.65139239
  19.18696001  7.18215585 16.27755322
  22.44155659  0.49367766 11.20910044
   6.60356235  3.53323226 13.94375770
   5.83544193  8.02830396 12.39472924
   6.36327003 15.40345125 15.29656026
   4.76813504 12.42343385 13.08920785
   3.44435051  8.62697504 13.24126574
   5.25440818  7.66047373 14.96942208
  21.33745138  8.20429214 12.73515651
  20.36286723 12.76750071 12.47800922
  17.28034963  1.68227812 11.96927179
   5.20160189 16.84878525 10.96698378
   5.90011017  7.29859043 17.45191831
  14.74829829 15.99446319 15.95338809
   9.60385771 14.29878658 11.38342242
  21.48621551  3.55245637 13.66334053
   3.10309823  8.03742302  8.93260776
   3.63220806  5.50021683  8.34890949
   8.73253334  2.37219755  9.35415932
   0.80896929  5.28907598 17.02980573
  13.40739700  4.65476936  8.60535697
   5.72147193 13.95046915 17.46758423
   4.85490080 11.74990155  8.34376522
   6.44687148  7.10699146  9.87629901
   8.55333550 10.82900896  9.20004704
   5.29986878  1.01806603  9.62744117
   5.64688233  3.55318002  8.85384768
  11.73544815 16.16960912 12.22767567
  12.87316062 14.99703015 14.36378685
  12.74276707 11.72784071 17.04372412
  11.20402428  2.20980232 16.02579971
   6.14546508 12.58205033 15.28414536
  10.36039911 15.35312426 15.63553404
  17.91844896 11.17678885 17.45849065
  19.77324287 15.07023443 16.74872497
  14.97452980 13.39792331 16.69769083
   0.19096333  0.60608007 16.21037666
   6.65776963  0.03620420 15.96457450
  11.78723687 17.60922754 16.89718265
  10.23036825  7.69087156 19.04196053
   1.94841153 10.98908596 10.92575188
   9.56511030 13.88027293 15.44789972
  19.70678075  7.99967650 12.57708649
   0.40008717 17.94875972 10.58159830
   0.34415087  5.14987929 10.51358498
   0.21725551  2.08552055 15.39113821
  14.26103948 11.91487842 16.42094274
   5.00959096  8.62376236 13.70359864
  21.42278905 13.69169878 13.34099278
  12.18741762  2.00159257 11.45195358
   9.80364555  3.07433016 15.84409393
   1.95373172  2.52197018 10.94101594
  16.43233932  0.81266960 13.10088356
  15.56990048 16.27354967 11.76083937
  15.21965321  9.13359373 11.56390395
   4.64622069 16.53530673 12.47363180
   5.01942970  6.64268030 16.22718713
  15.76502168 14.73837421 15.98566509
   5.07180467 11.62591069 14.47749192
   8.63383069 13.32142384 12.34509184
  18.66553206 16.09892134 16.01154933
  20.59735546 16.53146534 13.76405133
  13.49372107 10.41288438 13.75691858
  13.81023403  2.09285459 14.11924866
  20.08975493  2.75647993 13.31199648
  19.55653265 10.93813339 17.36220256
   3.13099191  6.52942423  9.59392828
  18.51026388  5.07284540 11.87902451
   9.34522920  3.21642612 10.64589911
  20.03828521 13.59219261 16.03644401
   6.62028557 16.93852651 14.78004437
   0.54020936  5.98811771 13.50205012
  13.45117902 12.60314055 11.70943634
   5.39023881 13.63805193 12.15046292
  13.90058027  5.14281432 14.73479651
  22.83032200  4.93455589 16.20136868
  20.81044864  0.46044249 11.40392910
   2.45227968  3.54246109 13.91866241
   1.12715225 13.28353886 12.97472440
   5.43040740  3.72747758 15.08497222
  13.14328356  4.67138795 10.24864117
  11.14201588 11.37216858 16.73372196
   6.57476309 13.96278563 16.07024908
   4.88127424 11.65920104  9.99508876
  17.33235106 12.87636161 14.40490724
  23.09673382 17.95157882 14.79559039
  16.46058793 13.35205634 11.67438144
  18.44313758  1.07627845 15.50664894
  10.68289909  5.95194918 11.00303640
  10.52469604 16.96440296 15.98181259
  11.90844557  0.74141299 15.75259942
   5.71814202  6.71222076 11.31647527
  15.41693082  5.98004644 12.10686792
  10.78986514  5.76070966 14.21525539
   7.89661487 10.69048859 10.72869482
  18.80121784  8.63383941 15.58473911
   1.62029077 16.28843975 12.91760565
   4.96103076  2.61769098 10.04353415
   1.83153245  8.95161915 13.29886860
  13.05343995 15.44545689 12.76234739
  16.81316503 10.59397129 16.38626849
   6.71066321  3.80730339 12.34244318
   2.06210373 11.33420227 15.25966829
   8.27133737  0.34865618 15.55376837
  11.43894064  8.69296749 15.39620977
  11.29614923  8.95093915 18.53914358



--------------------------------------------------------------------------------------------------------


 k-point  1 :   0.0000 0.0000 0.0000  plane waves:  289505
 k-point  2 :   0.3333 0.0000 0.0000  plane waves:  289422
 k-point  3 :   0.0000 0.3333 0.0000  plane waves:  289550
 k-point  4 :   0.3333 0.3333 0.0000  plane waves:  289551
 k-point  5 :  -0.3333 0.3333 0.0000  plane waves:  289551

 maximum and minimum number of plane-waves per node :     72451    72309

 maximum number of plane-waves:    289551
 maximum index in each direction: 
   IXMAX=   43   IYMAX=   33   IZMAX=   49
   IXMIN=  -43   IYMIN=  -33   IZMIN=  -49


 real space projection operators:
  total allocation   :      13781.91 KBytes
  max/ min on nodes  :       3449.14       3442.15


 parallel 3D FFT for wavefunctions:
    minimum data exchange during FFTs selected (reduces bandwidth)
 parallel 3D FFT for charge:
    minimum data exchange during FFTs selected (reduces bandwidth)


 total amount of memory used by VASP MPI-rank0   697351. kBytes
=======================================================================

   base      :      30000. kBytes
   nonlr-proj:      16915. kBytes
   fftplans  :      30982. kBytes
   grid      :      57864. kBytes
   one-center:       1073. kBytes
   wavefun   :     560517. kBytes

     INWAV:  cpu time    0.0001: real time    0.0000
 Broyden mixing: mesh for mixing (old mesh)
   NGX = 85   NGY = 67   NGZ = 99
  (NGX  =256   NGY  =200   NGZ  =300)
  gives a total of 563805 points

 initial charge density was supplied:
 charge density of overlapping atoms calculated
 number of electron    1258.0000000 magnetization 
 keeping initial charge density in first step


--------------------------------------------------------------------------------------------------------


 Maximum index for non-local projection operator          660
 Maximum index for augmentation-charges          478 (set IRDMAX)


--------------------------------------------------------------------------------------------------------


 First call to EWALD:  gamma=   0.079
 Maximum number of real-space cells 3x 3x 2
 Maximum number of reciprocal cells 3x 2x 3

    FEWALD:  cpu time    0.0264: real time    0.0265


--------------------------------------- Iteration      1(   1)  ---------------------------------------


    POTLOK:  cpu time    0.2829: real time    0.2885
    SETDIJ:  cpu time    0.5743: real time    0.5761
     EDDAV:  cpu time   81.7114: real time   82.0270
       DOS:  cpu time    0.0020: real time    0.0020
    --------------------------------------------
      LOOP:  cpu time   82.5706: real time   82.8936

 eigenvalue-minimisations  :  8592
 total energy-change (2. order) : 0.1285204E+05  (-0.4948268E+05)
 number of electron    1258.0000000 magnetization 
 augmentation part     1258.0000000 magnetization 

 DIPCOR: dipole corrections for dipol
 direction  3 min pos    71,
 dipolmoment           0.000000      0.000000      1.473369 electrons x Angstroem
 Tr[quadrupol]    -95214.150691

 energy correction for charged system         0.000000 eV
 dipol+quadrupol energy correction           -0.017650 eV
 added-field ion interaction        185.887360 eV  (added to PSCEN)


 Free energy of the ion-electron system (eV)
  ---------------------------------------------------
  alpha Z        PSCENC =       676.03266321
  Ewald energy   TEWEN  =    309433.40523579
  -Hartree energ DENC   =   -371657.38127951
  -exchange      EXHF   =         0.00000000
  -V(xc)+E(xc)   XCENC  =      3778.37135526
  PAW double counting   =     59955.48764796   -58973.29898038
  entropy T*S    EENTRO =        -1.67643339
  eigenvalues    EBANDS =     -5066.14547147
  atomic energy  EATOM  =     74707.24229009
  Solvation  Ediel_sol  =         0.00000000
  ---------------------------------------------------
  free energy    TOTEN  =     12852.03702755 eV

  energy without entropy =    12853.71346093  energy(sigma->0) =    12852.87524424


--------------------------------------------------------------------------------------------------------




--------------------------------------- Iteration      1(   2)  ---------------------------------------


     EDDAV:  cpu time   98.3116: real time   98.6909
       DOS:  cpu time    0.0011: real time    0.0011
    --------------------------------------------
      LOOP:  cpu time   98.3127: real time   98.6920

 eigenvalue-minimisations  : 10744
 total energy-change (2. order) :-0.1223485E+05  (-0.1184491E+05)
 number of electron    1258.0000000 magnetization 
 augmentation part     1258.0000000 magnetization 

 DIPCOR: dipole corrections for dipol
 direction  3 min pos    71,
 dipolmoment           0.000000      0.000000      1.473369 electrons x Angstroem
 Tr[quadrupol]    -95214.150691

 energy correction for charged system         0.000000 eV
 dipol+quadrupol energy correction           -0.017650 eV
 added-field ion interaction        185.887360 eV  (added to PSCEN)


 Free energy of the ion-electron system (eV)
  ---------------------------------------------------
  alpha Z        PSCENC =       676.03266321
  Ewald energy   TEWEN  =    309433.40523579
  -Hartree energ DENC   =   -371657.38127951
  -exchange      EXHF   =         0.00000000
  -V(xc)+E(xc)   XCENC  =      3778.37135526
  PAW double counting   =     59955.48764796   -58973.29898038
  entropy T*S    EENTRO =        -0.00000000
  eigenvalues    EBANDS =    -17302.67509405
  atomic energy  EATOM  =     74707.24229009
  Solvation  Ediel_sol  =         0.00000000
  ---------------------------------------------------
  free energy    TOTEN  =       617.18383836 eV

  energy without entropy =      617.18383836  energy(sigma->0) =      617.18383836


--------------------------------------------------------------------------------------------------------




--------------------------------------- Iteration      1(   3)  ---------------------------------------


     EDDAV:  cpu time   84.6514: real time   84.9682
       DOS:  cpu time    0.0012: real time    0.0012
    --------------------------------------------
      LOOP:  cpu time   84.6526: real time   84.9693

 eigenvalue-minimisations  :  8928
 total energy-change (2. order) :-0.2635311E+04  (-0.2625897E+04)
 number of electron    1258.0000000 magnetization 
 augmentation part     1258.0000000 magnetization 

 DIPCOR: dipole corrections for dipol
 direction  3 min pos    71,
 dipolmoment           0.000000      0.000000      1.473369 electrons x Angstroem
 Tr[quadrupol]    -95214.150691

 energy correction for charged system         0.000000 eV
 dipol+quadrupol energy correction           -0.017650 eV
 added-field ion interaction        185.887360 eV  (added to PSCEN)


 Free energy of the ion-electron system (eV)
  ---------------------------------------------------
  alpha Z        PSCENC =       676.03266321
  Ewald energy   TEWEN  =    309433.40523579
  -Hartree energ DENC   =   -371657.38127951
  -exchange      EXHF   =         0.00000000
  -V(xc)+E(xc)   XCENC  =      3778.37135526
  PAW double counting   =     59955.48764796   -58973.29898038
  entropy T*S    EENTRO =        -0.00000000
  eigenvalues    EBANDS =    -19937.98588799
  atomic energy  EATOM  =     74707.24229009
  Solvation  Ediel_sol  =         0.00000000
[...]
     18.98735      8.43484     13.98144         0.007775      0.005480     -0.005570
     23.02652      1.31871     14.01274        -0.007378      0.002751     -0.000832
     12.16870      8.35791     16.85631         0.015728     -0.021732     -0.005434
      0.80854     16.67059     11.54386        -0.110238      0.440227     -0.283176
     22.54593      5.49427      9.44299         0.184541     -0.186612      0.416742
      1.63005      6.09065     10.11814         0.290268     -0.134824     -0.025300
      4.87647     13.20394     10.62861         0.421463     -0.161883      0.428730
      0.91073      7.59465     13.41772         0.441521      0.042825      0.182118
      5.60736      5.18032     15.80330        -0.001913     -0.012289     -0.003020
      9.28896      3.54388     17.32670         0.005096     -0.005047      0.005313
     10.65037     10.15065     15.69052         0.005433      0.007347     -0.000773
     21.29733     13.57588     14.98743         0.008732     -0.002028     -0.006825
     20.34739      1.95788     11.88993        -0.089715     -0.043729      0.453758
     13.40476     12.09288     10.11169        -0.260866      0.192970      0.102035
      3.33439      2.88355     10.10740        -0.034879     -0.060640      0.194337
      8.19513     13.88452     16.31365         0.005265     -0.003338     -0.001717
     21.32760     15.31331     12.98949         0.319264     -1.478918      0.203283
      1.43600      9.72878     11.88926         0.541516      0.269039      0.063989
     16.58313     10.06030     11.28988        -0.114840     -0.552149     -0.038445
      1.76725     14.80155     12.98451        -0.028493     -6.361766      0.309649
     16.39879     14.99633     11.63069         1.818202     -3.822234     -0.202253
     17.09190      0.88660     14.59847         0.002246      0.000558     -0.003188
     21.51064      5.46898     16.99149         0.001023      0.001990     -0.004803
     17.20265     15.45611     16.47424         0.002495     -0.002363     -0.001481
     14.63491      9.55703     13.07550         1.962383     -1.228333     -1.205590
     13.03010     11.41100     12.56124        -3.568857     -2.651152      1.611632
      9.98801      4.47763     14.93914         0.004552      0.011912     -0.001343
     22.90304     13.19668     12.81787         0.404360      0.297769      0.250282
     15.30932     10.76949     17.02741        -0.010068      0.003813     -0.002988
      9.28326     13.53530     13.85333         0.007825     -0.004069      0.021638
     14.10975      9.38074     10.36813         0.277664     -0.119514      0.371608
     16.84792     11.43260     14.97305        -0.000618     -0.005183     -0.004024
      3.43647      6.59595     16.66458         0.015390      0.021554      0.006296
      1.54826      9.94021     14.56894         0.008761     -0.004479      0.001175
     19.17056     16.03005     14.42609        -0.002507      0.001841      0.004619
     19.38960      6.44002     12.14868        -0.133153      0.252216      0.202076
     12.36103      5.39600     14.26960         0.002441     -0.003503      0.001033
     17.24641      9.04420     16.00798        -0.006713     -0.004548      0.003297
     13.05025      3.12466     10.61647        -1.376861     -1.826612      0.525387
     18.86866      4.64651     10.30420        -0.042791     -0.025957      0.761270
      5.55892     17.27408     13.65459        -0.776355      0.208709     -0.926877
     16.21389     14.05855     14.55777        -0.000394      0.000252      0.001354
     21.62812     17.21136     14.86597        -0.004309     -0.004261     -0.003558
     12.30819      5.75859     10.71453        -7.872851      6.651676      3.184451
     10.96497     17.94418     14.68206         0.000740      0.000047     -0.012114
     19.60656      1.72360     14.51390        -0.003144     -0.000129      0.003409
     12.59301      2.10963     13.07169        -2.059950      0.602832     -1.020690
      8.19848      3.38158     11.81891        -0.109481      0.160359      0.038785
      0.27532     17.44013      9.01248        -0.252926      0.114693      0.329708
     10.64639     10.76388     18.19836        -0.018645      0.011149      0.015851
     15.33358     16.76935     10.19493        -0.565657      0.121779      0.631459
      1.78613     12.43164     11.71795         0.012919     -0.123870      0.115074
     10.63413      7.31635     14.88922         0.010251      0.006517      0.001461
     16.83786     12.69249     10.20447        -0.051426      0.282084      0.493686
     10.52513     12.75222     16.12640        -0.001264     -0.003201     -0.002277
     17.61819     12.85384     12.80443        -0.375608      0.239520     -1.074956
     18.22397      2.18753     16.69358        -0.011354     -0.011942      0.029590
     23.25384      5.58159     12.05458         0.240633      0.008037     -0.013864
     12.47638      9.21776     14.24850        -0.004981     -0.001795      0.003735
     19.12182      9.04362     11.38355         0.339715     -0.392063      0.433734
      5.50864      2.62699     16.27598        -0.007369      0.009548     -0.008631
      4.76498     15.05334     12.64953         0.593569     -6.684190      0.324768
      5.61818     10.12541     14.05558        -0.003977     -0.003290      0.003763
      1.43094     11.33366     16.76750         0.001000      0.006514      0.001262
      1.07865     10.91527      9.52151         0.186426      0.221736      0.441760
     18.74362     17.73322     16.28475         0.000341      0.010202      0.001453
     12.59506      0.50191     10.87440        -0.222455      0.376864      0.166266
     14.15270      5.67129     16.26539        -0.004461      0.000592      0.006381
     20.16991      0.07395      9.92551        -0.069181      0.005582      0.304324
      2.22200      2.70048     12.55675        -0.044859     -0.054897     -0.784644
      4.01438      3.69790     14.27121        -0.005600     -0.002442      0.011467
     15.00637     12.76530     12.22697         2.652844      0.211770     -0.620942
     10.22577      7.42551     10.38809         0.255992     -0.706226      0.518860
     13.44539      1.06016     15.35301         0.003150     -0.005512      0.002348
      3.54535     10.75329     10.45651        -0.004690      0.703428      0.083210
      6.26814     10.91510     10.54651         0.153126      0.312061      0.040152
     10.30702      5.83863     12.64390         0.334968      0.115709     -0.661566
      5.57211      2.87242     11.55719         0.325227      0.281995     -0.364924
      1.70366      2.72388     15.12401         0.011773     -0.007603      0.000399
     19.77842      9.86090     16.12259        -0.001794     -0.006939     -0.004914
     14.54261      5.07286     11.04652         1.390062      0.651385      0.842867
     14.10921     16.15557     12.56054        23.527365     14.630573     -4.493792
      0.73477      3.53889     10.45741         0.413625      0.154776      0.272661
     14.23357      3.53988     14.71946         0.001889     -0.003666      0.001761
      3.10901     17.00415     12.89023         0.014376     -0.151551     -0.330312
      1.87884      5.08105     13.75299        -0.001158      0.004860      0.005685
      8.72526      1.89781     15.29902        -0.001218      0.000006      0.002106
      1.56015     12.63028     14.40186        -0.002121      0.001204      0.000964
     15.60336      7.52729     11.56016        -0.324657      0.200355      0.450762
     18.71223     13.21983     15.16520        -0.011757      0.001715      0.005413
     16.47777     17.34580     12.64014        -0.775922      0.358803     -0.210481
     13.99288     11.48407     14.87135        -0.002360     -0.001164     -0.000595
     16.92263      5.32193     12.14236         0.252096      0.049262     -0.022023
     22.88548      5.69307     14.71184        -0.001230      0.001899     -0.005498
      3.70567     11.41298     15.34028        -0.002122      0.004610      0.000669
     14.82717      5.92171     13.65139         0.446880      0.227220     -0.696543
     19.18673      7.18185     16.27760         0.012407      0.013704     -0.012460
     22.44156      0.49368     11.20910        -0.306657     -0.372737     -0.320745
      6.60335      3.53331     13.94382         0.001346      0.008237      0.000691
      5.83544      8.02830     12.39473        -0.036995     -0.716268     -0.612717
      6.36341     15.40342     15.29668         0.003628     -0.001519      0.002759
      4.76814     12.42343     13.08921         0.245152      0.530268     -0.360062
      3.44435      8.62698     13.24127        -0.332708      0.097358      0.190851
      5.25464      7.66077     14.96913        -0.002234     -0.010828      0.009361
     21.33745      8.20429     12.73516        -0.260759     -0.141185     -0.128485
     20.36287     12.76750     12.47801         0.321426      0.275319      0.439279
     17.28035      1.68228     11.96927        -0.169862     -0.272881      0.489496
      5.20160     16.84879     10.96698        -0.331391      0.364624      0.369892
      5.89983      7.29854     17.45199         0.013094     -0.004935      0.017189
     14.74855     15.99490     15.95279         0.015712      0.006613      0.000506
      9.60386     14.29879     11.38342        -0.514068     -0.404139      0.304090
     21.48622      3.55246     13.66334        -0.765121     -0.036112     -0.115748
      3.10310      8.03742      8.93261         0.095521     -0.241128      0.316270
      3.63221      5.50022      8.34891        -0.161892      0.542970      0.358877
      8.73253      2.37220      9.35416         0.191231      0.604423      0.346540
      0.80895      5.28880     17.02973         0.002551     -0.000673     -0.006156
     13.40740      4.65477      8.60536        -0.203503      0.160946      0.216417
      5.72179     13.95033     17.46772        -0.000270      0.003587      0.010302
      4.85490     11.74990      8.34377         0.076083     -0.130246      0.504705
      6.44687      7.10699      9.87630         0.021547      0.046161      0.704392
      8.55334     10.82901      9.20005        -0.085043     -0.023419      0.748894
      5.29987      1.01807      9.62744        -0.073037      0.788239      0.116721
      5.64688      3.55318      8.85385        -0.375969     -0.059297      0.452906
     11.73545     16.16961     12.22768        -2.211212      1.032509     -0.698566
     12.87328     14.99715     14.36374         0.004202      0.002350      0.002206
     12.74321     11.72766     17.04397         0.008027     -0.003630      0.003541
     11.20396      2.20955     16.02600         0.000723     -0.007241      0.003132
      6.14559     12.58214     15.28395         0.009208      0.008511      0.010857
     10.36067     15.35283     15.63580         0.007742      0.000661      0.005828
     17.91839     11.17667     17.45873        -0.003376      0.006310     -0.005164
     19.77316     15.07005     16.74882         0.003828      0.008268     -0.000061
     14.97511     13.39808     16.69766         0.007005     -0.005000     -0.000301
      0.19097      0.60604     16.21027         0.001100     -0.001621      0.007202
      6.65790      0.03650     15.96385        -0.006314      0.007440     -0.001702
     11.78730     17.60907     16.89693         0.012071     -0.001077      0.014856
     10.23059      7.69101     19.04195        -0.007735     -0.001079      0.001805
      1.94841     10.98909     10.92575        -0.063947     -0.151586      0.038153
      9.56544     13.88013     15.44805         0.006097     -0.005118     -0.010831
     19.70678      7.99968     12.57709         0.117710     -0.160614     -0.298770
      0.40009     17.94876     10.58160         0.103176     -0.136677      0.305938
      0.34415      5.14988     10.51358         0.044398      0.034709      0.066989
      0.21727      2.08540     15.39111        -0.005352     -0.000483     -0.000242
     14.26126     11.91484     16.42077         0.009836      0.002060      0.003665
      5.00959      8.62336     13.70384        -0.000498      0.009590     -0.007338
     21.42279     13.69170     13.34099         0.203866      0.237523     -0.636149
     12.18742      2.00159     11.45195         0.164241     -0.061638      0.473989
      9.80378      3.07422     15.84401         0.004790     -0.000877     -0.001530
      1.95373      2.52197     10.94102         0.076683     -0.112772      0.070904
     16.43234      0.81267     13.10088         0.066537     -0.080968     -0.321580
     15.56990     16.27355     11.76084        -0.467050      4.558622     -0.223334
     15.21965      9.13359     11.56390         0.085988      0.035939      0.224289
      4.64622     16.53531     12.47363        -0.725721      6.169223     -0.360310
      5.01945      6.64274     16.22717        -0.015754      0.000280     -0.004119
     15.76511     14.73840     15.98575         0.004897      0.001914     -0.009909
      5.07168     11.62602     14.47738         0.001474     -0.001329      0.000470
      8.63383     13.32142     12.34509        -0.375881     -0.004235     -0.064577
     18.66560     16.09907     16.01168         0.001704     -0.004472     -0.000043
     20.59711     16.53161     13.76421         0.005797     -0.002096     -0.003874
     13.49362     10.41303     13.75733         0.004923     -0.000607     -0.012387
     13.81016      2.09274     14.11956        -0.000451     -0.004319     -0.007056
     20.08975      2.75648     13.31200        -0.194204      0.005842     -0.420448
     19.55636     10.93811     17.36208         0.001875      0.003412      0.000299
      3.13099      6.52942      9.59393        -0.100837     -0.113244      0.052109
     18.51026      5.07285     11.87902        -0.276132      0.098363      0.078479
      9.34523      3.21643     10.64590        -0.145143     -0.311157      0.227746
     20.03813     13.59223     16.03637        -0.001284     -0.005253      0.001863
      6.62048     16.93833     14.77991         0.000518     -0.001792     -0.004166
      0.54021      5.98812     13.50205         0.301816      0.189125     -0.404258
     13.45118     12.60314     11.70944         3.912065     -0.863769     -2.488210
      5.39024     13.63805     12.15046         0.125973     -0.593409      0.007281
     13.90061      5.14256     14.73483         0.005593      0.003545      0.003212
     22.83028      4.93448     16.20143        -0.001198      0.000314      0.002304
     20.81045      0.46044     11.40393         0.030379      0.041124      0.102865
      2.45206      3.54249     13.91889         0.005060     -0.000250     -0.005200
      1.12715     13.28354     12.97472        -0.126942     -0.566959     -0.245935
      5.43031      3.72775     15.08493        -0.003392      0.001912      0.001624
     13.14328      4.67139     10.24864         8.341848     -5.352364     -3.576506
     11.14226     11.37209     16.73392         0.011691     -0.001120     -0.002432
      6.57499     13.96290     16.07054         0.003513     -0.007276     -0.007385
      4.88127     11.65920      9.99509         0.067093     -0.068999      0.017129
     17.33238     12.87618     14.40475         0.000634      0.000130      0.000508
     23.09675     17.95153     14.79569         0.000207     -0.002319     -0.002188
     16.46059     13.35206     11.67438        -0.695316     -1.357601      0.338159
     18.44304      1.07644     15.50687         0.003084     -0.007449     -0.008364
     10.68290      5.95195     11.00304        -1.143433      0.543731      0.442449
     10.52489     16.96461     15.98207        -0.001639     -0.008477     -0.001886
     11.90868      0.74127     15.75268        -0.002731     -0.000046     -0.000164
      5.71814      6.71222     11.31648         0.017359     -0.128652     -0.103363
     15.41693      5.98005     12.10687        -0.152597     -0.472397     -0.816337
     10.79027      5.76086     14.21519        -0.002973     -0.001813     -0.000736
      7.89661     10.69049     10.72869        -0.135722     -0.085629     -0.058796
     18.80119      8.63369     15.58492         0.005235     -0.004925     -0.002870
      1.62029     16.28844     12.91761        -0.328662      6.439926     -0.543701
      4.96103      2.61769     10.04353        -0.074379     -0.038114      0.068692
      1.83153      8.95162     13.29887         0.024487     -0.147299     -0.313733
     13.05344     15.44546     12.76235       -22.330618    -15.850455      4.700930
     16.81328     10.59382     16.38628         0.002726     -0.003141      0.000820
      6.71066      3.80730     12.34244        -0.242770     -0.005125     -0.708093
      2.06218     11.33421     15.25962         0.002879      0.004615     -0.001755
      8.27150      0.34876     15.55340         0.006380     -0.007638     -0.000390
     11.43930      8.69336     15.39657        -0.002835     -0.004080     -0.003479
     11.29585      8.95095     18.53906        -0.007344     -0.016979      0.009112
 -----------------------------------------------------------------------------------
    total drift:                                0.441918      0.451875      0.156204


--------------------------------------------------------------------------------------------------------



  FREE ENERGIE OF THE ION-ELECTRON SYSTEM (eV)
  ---------------------------------------------------
  free  energy   TOTEN  =     -1887.24423854 eV

  energy  without entropy=    -1887.24423854  energy(sigma->0) =    -1887.24423854

 d Force = 0.1841388E-02[-0.922E-04, 0.377E-02]  d Energy = 0.1868471E-02-0.271E-04
 d Force =-0.4650440E+00[-0.473E+00,-0.457E+00]  d Ewald  =-0.4650431E+00-0.850E-06


--------------------------------------------------------------------------------------------------------


    POTLOK:  cpu time    0.8324: real time    0.8352


--------------------------------------------------------------------------------------------------------


 stress matrix after NEB project (eV)
    -32.75736      0.18317      0.18402
      0.18317    -33.50426      0.07483
      0.18402      0.07483    -25.30118
  FORCES: max atom, RMS     0.033869    0.008217
  FORCE total and by dimension    0.136516    0.029590
  Stress total and by dimension   53.252946   33.504264
 Quasi-Newton relaxation of ions (Broydens 2nd method)
  g(Force)  = 0.899E-03   g(Stress)= 0.000E+00

 retain information from N=  1 steps
 eigenvalues of (default step * inverse Hessian matrix)
  average eigenvalue of G=   0.1955
 eigenvalue spectrum of G is  0.1955


--------------------------------------------------------------------------------------------------------


  
 reached required accuracy - stopping structural energy minimisation
     LOOP+:  cpu time  214.2325: real time  215.0320
    4ORBIT:  cpu time    0.0000: real time    0.0000

 total amount of memory used by VASP MPI-rank0   697351. kBytes
=======================================================================

   base      :      30000. kBytes
   nonlr-proj:      16915. kBytes
   fftplans  :      30982. kBytes
   grid      :      57864. kBytes
   one-center:       1073. kBytes
   wavefun   :     560517. kBytes

  
  
 General timing and accounting informations for this job:
 ========================================================
  
                  Total CPU time used (sec):     1774.870
                            User time (sec):     1771.087
                          System time (sec):        3.783
                         Elapsed time (sec):     1782.963
  
                   Maximum memory used (kb):      998460.
                   Average memory used (kb):           0.
  
                          Minor page faults:      4225883
                          Major page faults:          194
                 Voluntary context switches:         5766
