 vasp.5.4.4.18Apr17-6-g9f103f2a35 (build Mar 12 2022 03:37:54) complex          
  
 executed on IFC19.0.3.199_CrayMP date 2023.04.21  18:45:38
 running on  132 total cores
 distrk:  each k-point on  132 cores,    1 groups
 distr:  one band on NCORES_PER_BAND=   1 cores,  132 groups


--------------------------------------------------------------------------------------------------------


 INCAR:
 POTCAR:    PAW_PBE H 15Jun2001                   
 POTCAR:    PAW_PBE O 08Apr2002                   
 POTCAR:    PAW_PBE Si 05Jan2001                  
 POTCAR:    PAW_PBE W 08Apr2002                   

 ----------------------------------------------------------------------------- 
|                                                                             |
|           W    W    AA    RRRRR   N    N  II  N    N   GGGG   !!!           |
|           W    W   A  A   R    R  NN   N  II  NN   N  G    G  !!!           |
|           W    W  A    A  R    R  N N  N  II  N N  N  G       !!!           |
|           W WW W  AAAAAA  RRRRR   N  N N  II  N  N N  G  GGG   !            |
|           WW  WW  A    A  R   R   N   NN  II  N   NN  G    G                |
|           W    W  A    A  R    R  N    N  II  N    N   GGGG   !!!           |
|                                                                             |
|      For optimal performance we recommend to set                            |
|        NCORE= 4 - approx SQRT( number of cores)                             |
|      NCORE specifies how many cores store one orbital (NPAR=cpu/NCORE).     |
|      This setting can  greatly improve the performance of VASP for DFT.     |
|      The default,   NCORE=1            might be grossly inefficient         |
|      on modern multi-core architectures or massively parallel machines.     |
|      Do your own testing !!!!                                               |
|      Unfortunately you need to use the default for GW and RPA calculations. |
|      (for HF NCORE is supported but not extensively tested yet)             |
|                                                                             |
 ----------------------------------------------------------------------------- 

 POTCAR:    PAW_PBE H 15Jun2001                   
   VRHFIN =H: ultrasoft test                                                    
   LEXCH  = PE                                                                  
   EATOM  =    12.4884 eV,    0.9179 Ry                                         
                                                                                
   TITEL  = PAW_PBE H 15Jun2001                                                 
   LULTRA =        F    use ultrasoft PP ?                                      
   IUNSCR =        0    unscreen: 0-lin 1-nonlin 2-no                           
   RPACOR =    0.000    partial core radius                                     
   POMASS =    1.000; ZVAL   =    1.000    mass and valenz                      
   RCORE  =    1.100    outmost cutoff radius                                   
   RWIGS  =    0.700; RWIGS  =    0.370    wigner-seitz radius (au A)           
   ENMAX  =  250.000; ENMIN  =  200.000 eV                                      
   RCLOC  =    0.701    cutoff for local pot                                    
   LCOR   =        T    correct aug charges                                     
   LPAW   =        T    paw PP                                                  
   EAUG   =  400.000                                                            
   RMAX   =    1.123    core radius for proj-oper                               
   RAUG   =    1.200    factor for augmentation sphere                          
   RDEP   =    1.112    radius for radial grids                                 
   RDEPT  =    0.926    core radius for aug-charge                              
                                                                                
   Atomic configuration                                                         
    2 entries                                                                   
     n  l   j            E        occ.                                          
     1  0  0.50        -6.4927   1.0000                                         
     2  1  0.50        -3.4015   0.0000                                         
   Description                                                                  
     l       E           TYP  RCUT    TYP  RCUT                                 
     0     -6.4927494     23  1.100                                             
     0      6.8029130     23  1.100                                             
     1     -4.0817478     23  1.100                                             
  local pseudopotential read in
  atomic valenz-charges read in
  non local Contribution for L=           0  read in
    real space projection operators read in
  non local Contribution for L=           0  read in
    real space projection operators read in
  non local Contribution for L=           1  read in
    real space projection operators read in
    PAW grid and wavefunctions read in
 
   number of l-projection  operators is LMAX  =           3
   number of lm-projection operators is LMMAX =           5
 
 POTCAR:    PAW_PBE O 08Apr2002                   
   VRHFIN =O: s2p4                                                              
   LEXCH  = PE                                                                  
   EATOM  =   432.3788 eV,   31.7789 Ry                                         
                                                                                
   TITEL  = PAW_PBE O 08Apr2002                                                 
   LULTRA =        F    use ultrasoft PP ?                                      
   IUNSCR =        1    unscreen: 0-lin 1-nonlin 2-no                           
   RPACOR =    1.200    partial core radius                                     
   POMASS =   16.000; ZVAL   =    6.000    mass and valenz                      
   RCORE  =    1.520    outmost cutoff radius                                   
   RWIGS  =    1.550; RWIGS  =    0.820    wigner-seitz radius (au A)           
   ENMAX  =  400.000; ENMIN  =  300.000 eV                                      
   ICORE  =        2    local potential                                         
   LCOR   =        T    correct aug charges                                     
   LPAW   =        T    paw PP                                                  
   EAUG   =  605.392                                                            
   DEXC   =    0.000                                                            
   RMAX   =    1.553    core radius for proj-oper                               
   RAUG   =    1.300    factor for augmentation sphere                          
   RDEP   =    1.550    radius for radial grids                                 
   RDEPT  =    1.329    core radius for aug-charge                              
                                                                                
   Atomic configuration                                                         
    4 entries                                                                   
     n  l   j            E        occ.                                          
     1  0  0.50      -514.6923   2.0000                                         
     2  0  0.50       -23.9615   2.0000                                         
     2  1  0.50        -9.0305   4.0000                                         
     3  2  1.50        -9.5241   0.0000                                         
   Description                                                                  
     l       E           TYP  RCUT    TYP  RCUT                                 
     0    -23.9615318     23  1.200                                             
     0     -9.5240782     23  1.200                                             
     1     -9.0304911     23  1.520                                             
     1      8.1634956     23  1.520                                             
     2     -9.5240782      7  1.500                                             
  local pseudopotential read in
  partial core-charges read in
  partial kinetic energy density read in
  kinetic energy density of atom read in
  atomic valenz-charges read in
  non local Contribution for L=           0  read in
    real space projection operators read in
  non local Contribution for L=           0  read in
    real space projection operators read in
  non local Contribution for L=           1  read in
    real space projection operators read in
  non local Contribution for L=           1  read in
    real space projection operators read in
    PAW grid and wavefunctions read in
 
   number of l-projection  operators is LMAX  =           4
   number of lm-projection operators is LMMAX =           8
 
 POTCAR:    PAW_PBE Si 05Jan2001                  
   VRHFIN =Si: s2p2                                                             
   LEXCH  = PE                                                                  
   EATOM  =   103.0669 eV,    7.5752 Ry                                         
                                                                                
   TITEL  = PAW_PBE Si 05Jan2001                                                
   LULTRA =        F    use ultrasoft PP ?                                      
   IUNSCR =        1    unscreen: 0-lin 1-nonlin 2-no                           
   RPACOR =    1.500    partial core radius                                     
   POMASS =   28.085; ZVAL   =    4.000    mass and valenz                      
   RCORE  =    1.900    outmost cutoff radius                                   
   RWIGS  =    2.480; RWIGS  =    1.312    wigner-seitz radius (au A)           
   ENMAX  =  245.345; ENMIN  =  184.009 eV                                      
   ICORE  =        2    local potential                                         
   LCOR   =        T    correct aug charges                                     
   LPAW   =        T    paw PP                                                  
   EAUG   =  322.069                                                            
   DEXC   =    0.000                                                            
   RMAX   =    1.950    core radius for proj-oper                               
   RAUG   =    1.300    factor for augmentation sphere                          
   RDEP   =    1.993    radius for radial grids                                 
   RDEPT  =    1.837    core radius for aug-charge                              
                                                                                
   Atomic configuration                                                         
    6 entries                                                                   
     n  l   j            E        occ.                                          
     1  0  0.50     -1785.8828   2.0000                                         
     2  0  0.50      -139.4969   2.0000                                         
     2  1  1.50       -95.5546   6.0000                                         
     3  0  0.50       -10.8127   2.0000                                         
     3  1  0.50        -4.0811   2.0000                                         
     3  2  1.50        -4.0817   0.0000                                         
   Description                                                                  
     l       E           TYP  RCUT    TYP  RCUT                                 
     0    -10.8127223     23  1.900                                             
     0     -7.6451159     23  1.900                                             
     1     -4.0811372     23  1.900                                             
     1      2.4879257     23  1.900                                             
     2     -4.0817478      7  1.900                                             
  local pseudopotential read in
  partial core-charges read in
  partial kinetic energy density read in
  atomic valenz-charges read in
  non local Contribution for L=           0  read in
    real space projection operators read in
  non local Contribution for L=           0  read in
    real space projection operators read in
  non local Contribution for L=           1  read in
    real space projection operators read in
  non local Contribution for L=           1  read in
    real space projection operators read in
    PAW grid and wavefunctions read in
 
   number of l-projection  operators is LMAX  =           4
   number of lm-projection operators is LMMAX =           8
 
 POTCAR:    PAW_PBE W 08Apr2002                   
   VRHFIN =W : 6s5d                                                             
   LEXCH  = PE                                                                  
   EATOM  =   204.6103 eV,   15.0384 Ry                                         
                                                                                
   TITEL  = PAW_PBE W 08Apr2002                                                 
   LULTRA =        F    use ultrasoft PP ?                                      
   IUNSCR =        1    unscreen: 0-lin 1-nonlin 2-no                           
   RPACOR =    2.330    partial core radius                                     
   POMASS =  183.850; ZVAL   =    6.000    mass and valenz                      
   RCORE  =    2.750    outmost cutoff radius                                   
   RWIGS  =    2.750; RWIGS  =    1.455    wigner-seitz radius (au A)           
   ENMAX  =  223.057; ENMIN  =  167.293 eV                                      
   RCLOC  =    2.147    cutoff for local pot                                    
   LCOR   =        T    correct aug charges                                     
   LPAW   =        T    paw PP                                                  
   EAUG   =  373.438                                                            
   DEXC   =    0.000                                                            
   RMAX   =    2.801    core radius for proj-oper                               
   RAUG   =    1.300    factor for augmentation sphere                          
   RDEP   =    2.886    radius for radial grids                                 
   RDEPT  =    2.230    core radius for aug-charge                              
                                                                                
   Atomic configuration                                                         
   16 entries                                                                   
     n  l   j            E        occ.                                          
     1  0  0.50    -69465.5836   2.0000                                         
     2  0  0.50    -11986.2642   2.0000                                         
     2  1  1.50    -10479.8616   6.0000                                         
     3  0  0.50     -2759.0758   2.0000                                         
     3  1  1.50     -2313.1857   6.0000                                         
     3  2  2.50     -1801.1185  10.0000                                         
     4  0  0.50      -567.6791   2.0000                                         
     4  1  1.50      -421.4694   6.0000                                         
     4  2  2.50      -236.3473  10.0000                                         
     4  3  3.50       -31.2666  14.0000                                         
     5  0  0.50       -77.1085   2.0000                                         
     5  1  1.50       -41.3856   6.0000                                         
     5  2  2.50        -3.3185   5.0000                                         
     6  0  0.50        -5.1438   1.0000                                         
     6  1  0.50        -3.8096   0.0000                                         
     5  3  2.50        -1.3606   0.0000                                         
   Description                                                                  
     l       E           TYP  RCUT    TYP  RCUT                                 
     2     -3.3185288     23  2.500                                             
     2     -1.5965414     23  2.500                                             
     0     -5.1438054     23  2.500                                             
     0      4.9117504     23  2.500                                             
     1      2.7211652     23  2.750                                             
     1     27.2116520     23  2.750                                             
  local pseudopotential read in
  partial core-charges read in
  partial kinetic energy density read in
  atomic valenz-charges read in
  non local Contribution for L=           2  read in
    real space projection operators read in
  non local Contribution for L=           2  read in
    real space projection operators read in
  non local Contribution for L=           0  read in
    real space projection operators read in
  non local Contribution for L=           0  read in
    real space projection operators read in
  non local Contribution for L=           1  read in
    real space projection operators read in
  non local Contribution for L=           1  read in
    real space projection operators read in
    PAW grid and wavefunctions read in
 
   number of l-projection  operators is LMAX  =           6
   number of lm-projection operators is LMMAX =          18
 
 Optimization of the real space projectors (new method)

 maximal supplied QI-value         = 34.20
 optimisation between [QCUT,QGAM] = [ 11.29, 22.57] = [ 35.68,142.71] Ry 
 Optimized for a Real-space Cutoff    1.16 Angstroem

   l    n(q)    QCUT    max X(q) W(low)/X(q) W(high)/X(q)  e(spline) 
   0      8    11.287    19.460    0.40E-03    0.73E-03    0.16E-06
   0      8    11.287    12.209    0.38E-03    0.70E-03    0.15E-06
   1      7    11.287     4.655    0.22E-03    0.25E-04    0.22E-06
 Optimization of the real space projectors (new method)

 maximal supplied QI-value         = 24.76
 optimisation between [QCUT,QGAM] = [ 11.39, 22.77] = [ 36.31,145.25] Ry 
 Optimized for a Real-space Cutoff    1.00 Angstroem

   l    n(q)    QCUT    max X(q) W(low)/X(q) W(high)/X(q)  e(spline) 
   0      7    11.387    20.381    0.39E-03    0.13E-02    0.15E-06
   0      7    11.387    15.268    0.42E-03    0.14E-02    0.17E-06
   1      6    11.387     5.964    0.41E-03    0.11E-02    0.17E-06
   1      6    11.387     5.382    0.39E-03    0.87E-03    0.15E-06
 Optimization of the real space projectors (new method)

 maximal supplied QI-value         = 19.84
 optimisation between [QCUT,QGAM] = [ 11.31, 22.82] = [ 35.82,145.81] Ry 
 Optimized for a Real-space Cutoff    1.16 Angstroem

   l    n(q)    QCUT    max X(q) W(low)/X(q) W(high)/X(q)  e(spline) 
   0      8    11.310   159.560    0.27E-03    0.30E-03    0.39E-07
   0      8    11.310   115.863    0.27E-03    0.30E-03    0.38E-07
   1      7    11.310    88.339    0.28E-03    0.28E-03    0.77E-07
   1      7    11.310    48.592    0.27E-03    0.27E-03    0.74E-07
 Optimization of the real space projectors (new method)

 maximal supplied QI-value         = 13.61
 optimisation between [QCUT,QGAM] = [ 11.43, 22.86] = [ 36.58,146.31] Ry 
 Optimized for a Real-space Cutoff    1.56 Angstroem

   l    n(q)    QCUT    max X(q) W(low)/X(q) W(high)/X(q)  e(spline) 
   2     10    11.429   130.855    0.22E-03    0.64E-03    0.11E-05
   2     10    11.429   114.007    0.22E-03    0.64E-03    0.11E-05
   0     11    11.429    84.709    0.39E-04    0.67E-04    0.23E-06
   0     11    11.429    49.163    0.35E-04    0.62E-04    0.21E-06
   1     10    11.429    15.765    0.84E-04    0.15E-03    0.24E-06
   1     10    11.429    10.638    0.58E-04    0.12E-03    0.19E-06

 ----------------------------------------------------------------------------- 
|                                                                             |
|  ADVICE TO THIS USER RUNNING 'VASP/VAMP'   (HEAR YOUR MASTER'S VOICE ...):  |
|                                                                             |
|      You enforced a specific xc-type in the INCAR file,                     |
|      a different type was found on the POTCAR file                          |
|          I HOPE YOU KNOW, WHAT YOU ARE  DOING                               |
|                                                                             |
 ----------------------------------------------------------------------------- 

  PAW_PBE H 15Jun2001                   :
 energy of atom  1       EATOM=  -12.4884
 kinetic energy error for atom=    0.0020 (will be added to EATOM!!)
  PAW_PBE O 08Apr2002                   :
 energy of atom  2       EATOM= -432.3788
 kinetic energy error for atom=    0.0224 (will be added to EATOM!!)
  PAW_PBE Si 05Jan2001                  :
 energy of atom  3       EATOM= -103.0669
 kinetic energy error for atom=    0.0006 (will be added to EATOM!!)
  PAW_PBE W 08Apr2002                   :
 energy of atom  4       EATOM= -204.6103
 kinetic energy error for atom=    0.0017 (will be added to EATOM!!)
 
 
 POSCAR:  H  O Si  W                             
  positions in cartesian coordinates
  No initial velocities read in
 exchange correlation table for  LEXCH =        9
   RHO(1)=    0.500       N(1)  =     2000
   RHO(2)=  100.500       N(2)  =     4000
 


--------------------------------------------------------------------------------------------------------


 ion  position               nearest neighbor table
   1  0.762  0.104  0.652- 119 0.97
   2  0.926  0.279  0.356-  67 0.98
   3  0.793  0.207  0.373- 102 0.97
   4  0.975  0.944  0.325- 111 0.97
   5  0.626  0.963  0.375- 113 0.98
   6  0.821  0.995  0.369- 131 0.97
   7  0.750  0.141  0.458- 169 0.98
   8  0.915  0.249  0.510- 174 0.97
   9  0.583  0.304  0.306- 179 0.97
  10  0.891  0.335  0.617-  85 0.98
  11  0.587  0.356  0.616- 130 0.97
  12  0.594  0.871  0.578- 172 0.99
  13  0.033  0.337  0.653- 178 0.97
  14  0.935  0.420  0.454- 167 0.98
  15  0.746  0.530  0.422-  81 1.00
  16  0.797  0.381  0.634- 159 0.97
  17  0.591  0.569  0.378-  93 0.99
  18  0.718  0.646  0.383- 116 0.99
  19  0.841  0.542  0.420- 122 0.98
  20  0.005  0.604  0.358- 127 0.97
  21  0.828  0.712  0.468- 168 0.99
  22  0.876  0.600  0.722-  47 0.97
  23  0.520  0.986  0.422- 129 0.99
  24  0.223  0.980  0.393- 170 1.00
  25  0.216  0.238  0.319- 185 0.99
  26  0.158  0.330  0.279- 176 0.97
  27  0.342  0.156  0.331- 177 0.98
  28  0.223  0.046  0.323- 184 0.97
  29  0.512  0.825  0.547- 187 0.97
  30  0.380  0.243  0.647-  72 0.97
  31  0.244  0.093  0.598- 123 0.98
  32  0.315  0.487  0.442-  46 0.99
  33  0.409  0.439  0.406- 135 0.98
  34  0.398  0.793  0.389- 173 0.97
  35  0.244  0.655  0.294- 181 0.97
  36  0.312  0.418  0.369- 182 0.98
  37  0.405  0.584  0.339- 183 0.97
  38  0.139  0.488  0.352- 175 0.98
  39  0.593  0.698  0.352-  76 0.97
  40  0.469  0.861  0.444- 186 0.99
  41  0.121  0.323  0.612-  95 0.97
  42  0.068  0.668  0.644- 126 0.97
  43  0.239  0.388  0.683- 171 0.97
  44  0.248  0.814  0.670- 180 0.97
  45  0.369  0.648  0.439- 218 1.66 253 1.68
  46  0.347  0.504  0.420-  32 0.99 253 1.67
  47  0.861  0.567  0.697-  22 0.97 224 1.64
  48  0.349  0.957  0.530- 229 1.68 262 1.70
  49  0.034  0.932  0.529- 244 1.63 255 1.66
  50  0.636  0.079  0.489- 222 1.60 211 1.65
  51  0.069  0.052  0.395- 210 1.64 202 1.65
  52  0.452  0.130  0.421- 227 1.65 208 1.65
  53  0.806  0.214  0.483- 226 1.67 223 1.69
  54  0.973  0.181  0.599- 204 1.63 234 1.65
  55  0.275  0.299  0.449- 250 1.65 260 1.66
  56  0.556  0.775  0.442- 231 1.51 258 1.66
  57  0.393  0.971  0.619- 248 1.65 262 1.66
  58  0.178  0.350  0.405- 250 1.66 225 1.67
  59  0.867  0.684  0.637- 228 1.64 224 1.65
  60  0.866  0.967  0.467- 220 1.60 235 1.65
  61  0.301  0.761  0.458- 218 1.65 232 1.67
  62  0.422  0.261  0.380- 227 1.67 247 1.67
  63  0.811  0.465  0.520- 254 1.63 201 1.64
  64  0.984  0.073  0.521- 244 1.68 204 1.69
  65  0.516  0.444  0.627- 263 1.68 264 1.93
  66  0.035  0.920  0.429- 255 1.64 202 1.65
  67  0.963  0.303  0.351-   2 0.98 203 1.65
  68  0.070  0.336  0.376- 203 1.64 225 1.65
  69  0.208  0.729  0.395- 232 1.66 242 1.67
  70  0.039  0.419  0.499- 257 1.64 230 1.65
  71  0.240  0.286  0.588- 238 1.63 215 1.63
  72  0.398  0.195  0.645-  30 0.97 209 1.64
  73  0.460  0.555  0.594- 263 1.69 240 1.71 264 2.60
  74  0.910  0.749  0.557- 228 1.64 207 1.65
  75  0.869  0.108  0.442- 235 1.64 223 1.65
  76  0.573  0.667  0.376-  39 0.97 231 1.68
  77  0.142  0.159  0.376- 256 1.65 210 1.65
  78  0.351  0.766  0.607- 200 1.62 241 1.64
  79  0.911  0.845  0.483- 220 1.62 207 1.66
  80  0.061  0.537  0.442- 257 1.66 199 1.67
  81  0.708  0.555  0.420-  15 1.00 213 1.67
  82  0.075  0.817  0.483- 255 1.50 237 1.65
  83  0.700  0.828  0.433- 212 1.53 245 1.65
  84  0.730  0.049  0.543- 211 1.64 246 1.64
  85  0.919  0.301  0.632-  10 0.98 234 1.63
  86  0.736  0.854  0.613- 219 1.66 216 1.67
  87  0.625  0.527  0.486- 221 1.59 213 1.68
  88  0.557  0.630  0.467- 231 1.52 221 1.63
  89  0.427  0.245  0.555- 252 1.68 209 1.68
  90  0.978  0.728  0.477- 237 1.65 207 1.65
  91  0.654  0.595  0.633- 259 1.64 205 1.66
  92  0.397  0.746  0.515- 200 1.65 218 1.65
  93  0.603  0.518  0.386-  17 0.99 213 1.65
  94  0.720  0.632  0.557- 243 1.63 259 1.65
  95  0.147  0.364  0.620-  41 0.97 215 1.64
  96  0.066  0.549  0.542- 257 1.63 261 1.64
  97  0.819  0.885  0.537- 220 1.65 219 1.66
  98  0.828  0.355  0.452- 226 1.65 201 1.65
  99  0.528  0.298  0.532- 252 1.61 233 1.63
 100  0.737  0.500  0.595- 259 1.65 254 1.66
 101  0.557  0.172  0.395- 239 1.59 208 1.64
 102  0.806  0.256  0.383-   3 0.97 226 1.67
 103  0.237  0.953  0.508- 229 1.58 214 1.67
 104  0.693  0.777  0.541- 243 1.64 216 1.64
 105  0.924  0.950  0.553- 244 1.64 220 1.65
 106  0.526  0.318  0.399- 239 1.45 247 1.66
 107  0.469  0.989  0.546- 248 1.69 249 1.70
 108  0.838  0.095  0.540- 223 1.65 246 1.66
 109  0.538  0.116  0.486- 222 1.61 208 1.67
 110  0.350  0.187  0.440- 260 1.63 227 1.65
 111  0.012  0.962  0.335-   4 0.97 202 1.65
 112  0.459  0.601  0.682- 240 1.68 264 1.92
 113  0.655  0.925  0.379-   5 0.98 212 1.66
 114  0.076  0.686  0.436- 199 1.65 237 1.66
 115  0.453  0.403  0.552- 263 1.66 252 1.71
 116  0.719  0.700  0.380-  18 0.99 245 1.65
 117  0.449  0.701  0.599- 240 1.62 200 1.63
 118  0.753  0.709  0.476- 243 1.63 245 1.69
 119  0.779  0.121  0.621-   1 0.97 246 1.64
 120  0.993  0.308  0.448- 230 1.66 203 1.68
 121  0.533  0.510  0.532- 263 1.63 221 1.66
 122  0.817  0.499  0.423-  19 0.98 201 1.69
 123  0.236  0.145  0.605-  31 0.98 238 1.62
 124  0.204  0.831  0.471- 214 1.50 232 1.63
 125  0.240  0.559  0.523- 217 1.65 206 1.66
 126  0.061  0.625  0.624-  42 0.97 261 1.63
 127  0.046  0.602  0.354-  20 0.97 199 1.65
 128  0.801  0.979  0.606- 219 1.66 246 1.68
 129  0.538  0.028  0.405-  23 0.99 208 1.66
 130  0.607  0.312  0.605-  11 0.97 233 1.63
 131  0.862  0.004  0.369-   6 0.97 235 1.66
 132  0.095  0.149  0.467- 236 1.62 210 1.65
 133  0.172  0.204  0.531- 236 1.61 238 1.63
 134  0.641  0.704  0.455- 231 1.65 245 1.66
 135  0.437  0.410  0.386-  33 0.98 247 1.66
 136  0.575  0.058  0.571- 249 1.62 222 1.65
 137  0.151  0.593  0.389- 242 1.68 199 1.68
 138  0.268  0.602  0.392- 253 1.65 242 1.67
 139  0.440  0.322  0.470- 252 1.64 247 1.69
 140  0.238  0.159  0.430- 256 1.65 260 1.67
 141  0.073  0.150  0.563- 236 1.64 204 1.64
 142  0.845  0.544  0.600- 224 1.66 254 1.66
 143  0.621  0.280  0.411- 251 1.65 239 1.66
 144  0.603  0.892  0.467- 258 1.29 212 1.67
 145  0.031  0.195  0.389- 203 1.66 210 1.66
 146  0.608  0.195  0.548- 222 1.62 233 1.64
 147  0.133  0.938  0.479- 255 1.65 214 1.66
 148  0.080  0.280  0.512- 230 1.64 236 1.65
 149  0.373  0.103  0.569- 262 1.63 209 1.69
 150  0.067  0.697  0.536- 237 1.63 261 1.63
 151  0.666  0.415  0.430- 213 1.65 251 1.65
 152  0.800  0.730  0.564- 243 1.61 228 1.63
 153  0.704  0.957  0.470- 211 1.65 212 1.66
 154  0.597  0.634  0.554- 221 1.62 205 1.64
 155  0.723  0.294  0.452- 226 1.63 251 1.64
 156  0.978  0.314  0.547- 230 1.64 234 1.67
 157  0.158  0.630  0.570- 217 1.63 261 1.65
 158  0.633  0.327  0.508- 233 1.63 251 1.65
 159  0.820  0.396  0.605-  16 0.97 254 1.65
 160  0.959  0.027  0.417- 235 1.64 202 1.65
 161  0.282  0.195  0.519- 260 1.63 238 1.65
 162  0.249  0.443  0.461- 206 1.66 250 1.71
 163  0.272  0.849  0.568- 229 1.64 241 1.65
 164  0.204  0.686  0.487- 217 1.63 232 1.66
 165  0.147  0.476  0.493- 206 1.63 257 1.65
 166  0.225  0.422  0.557- 206 1.61 215 1.64
 167  0.911  0.453  0.474-  14 0.98 201 1.65
 168  0.870  0.705  0.464-  21 0.99 207 1.65
 169  0.738  0.093  0.445-   7 0.98 211 1.66
 170  0.222  0.930  0.408-  24 1.00 214 1.64
 171  0.251  0.402  0.650-  43 0.97 215 1.65
 172  0.631  0.884  0.593-  12 0.99 216 1.62
 173  0.410  0.789  0.423-  34 0.97 218 1.68
 174  0.918  0.196  0.508-   8 0.97 223 1.65
 175  0.133  0.444  0.332-  38 0.98 225 1.65
 176  0.155  0.304  0.311-  26 0.97 225 1.69
 177  0.373  0.131  0.348-  27 0.98 227 1.66
 178  0.034  0.292  0.633-  13 0.97 234 1.66
 179  0.573  0.257  0.320-   9 0.97 239 1.66
 180  0.246  0.770  0.650-  44 0.97 241 1.64
 181  0.207  0.648  0.310-  35 0.97 242 1.65
 182  0.275  0.392  0.367-  36 0.98 250 1.66
 183  0.365  0.598  0.342-  37 0.97 253 1.67
 184  0.226  0.056  0.358-  28 0.97 256 1.69
 185  0.241  0.196  0.329-  25 0.99 256 1.66
 186  0.501  0.892  0.455-  40 0.99 258 1.60
 187  0.551  0.828  0.534-  29 0.97 258 1.67
 188  0.547  0.657  0.636- 205 1.64 240 1.65
 189  0.479  0.121  0.596- 249 1.65 209 1.65
 190  0.263  0.694  0.569- 241 1.65 217 1.65
 191  0.444  0.845  0.581- 248 1.66 200 1.68
 192  0.766  0.617  0.649- 259 1.64 224 1.66
 193  0.845  0.832  0.623- 228 1.66 219 1.68
 194  0.643  0.741  0.622- 205 1.66 216 1.70
 195  0.008  0.033  0.603- 244 1.69 204 1.69
 196  0.285  0.001  0.594- 262 1.69 229 1.70
 197  0.504  0.970  0.628- 248 1.69 249 1.70
 198  0.503  0.468  0.739- 264 1.71
 199  0.083  0.606  0.406- 127 1.65 114 1.65  80 1.67 137 1.68 257 3.13
 200  0.409  0.765  0.574-  78 1.62 117 1.63  92 1.65 191 1.68 241 3.06
 201  0.842  0.441  0.468-  63 1.64  98 1.65 167 1.65 122 1.69
 202  0.017  0.990  0.394-  51 1.65 160 1.65  66 1.65 111 1.65 255 3.11 210 3.13
 203  0.015  0.284  0.391-  68 1.64  67 1.65 145 1.66 120 1.68 230 3.11 210 3.11
 204  0.010  0.115  0.572-  54 1.63 141 1.64  64 1.69 195 1.69 244 2.39 236 3.05 234 3.07
 205  0.611  0.660  0.612- 154 1.64 188 1.64  91 1.66 194 1.66 259 2.86 240 3.14
 206  0.214  0.476  0.510- 166 1.61 165 1.63 162 1.66 125 1.66 217 3.10 250 3.14
 207  0.915  0.756  0.496-  90 1.65 168 1.65  74 1.65  79 1.66 220 2.99 228 3.03
 208  0.521  0.110  0.426- 101 1.64  52 1.65 129 1.66 109 1.67 239 3.08 222 3.12
 209  0.419  0.168  0.589-  72 1.64 189 1.65  89 1.68 149 1.69 262 3.14 249 3.14
 210  0.083  0.139  0.407-  51 1.64 132 1.65  77 1.65 145 1.66 203 3.11 202 3.13 256 3.14
 211  0.702  0.045  0.487-  84 1.64 153 1.65  50 1.65 169 1.66 222 3.09 212 3.10
 212  0.665  0.898  0.437-  83 1.53 153 1.66 113 1.66 144 1.67 258 2.83 245 3.06 211 3.10
 213  0.650  0.504  0.430-  93 1.65 151 1.65  81 1.67  87 1.68 221 3.08
 214  0.198  0.912  0.464- 124 1.50 170 1.64 147 1.66 103 1.67 232 3.01 229 3.06 255 3.07
 215  0.214  0.366  0.604-  71 1.63 166 1.64  95 1.64 171 1.65
 216  0.675  0.815  0.595- 172 1.62 104 1.64  86 1.67 194 1.70 243 2.90
 217  0.217  0.641  0.538- 157 1.63 164 1.63 190 1.65 125 1.65 232 3.09 206 3.10 261 3.12
 218  0.369  0.735  0.459-  61 1.65  92 1.65  45 1.66 173 1.68
 219  0.798  0.889  0.596- 128 1.66  86 1.66  97 1.66 193 1.68 228 2.86 220 2.99 246 3.14
 220  0.880  0.912  0.512-  60 1.60  79 1.62  97 1.65 105 1.65 219 2.99 207 2.99 244 3.06 235 3.13

 221  0.577  0.576  0.512-  87 1.59 154 1.62  88 1.63 121 1.66 231 3.00 213 3.08
 222  0.590  0.115  0.525-  50 1.60 109 1.61 146 1.62 136 1.65 249 2.85 211 3.09 233 3.11 208 3.12

 223  0.858  0.152  0.495- 174 1.65  75 1.65 108 1.65  53 1.69 235 3.07 226 3.15
 224  0.836  0.604  0.646-  47 1.64  59 1.65 192 1.66 142 1.66 259 2.93 228 3.01 254 3.01
 225  0.134  0.360  0.357- 175 1.65  68 1.65  58 1.67 176 1.69 250 3.11
 226  0.791  0.280  0.442- 155 1.63  98 1.65 102 1.67  53 1.67 223 3.15
 227  0.399  0.177  0.396-  52 1.65 110 1.65 177 1.66  62 1.67 247 3.07
 228  0.856  0.750  0.597- 152 1.63  74 1.64  59 1.64 193 1.66 219 2.86 224 3.01 207 3.03
 229  0.283  0.934  0.549- 103 1.58 163 1.64  48 1.68 196 1.70 262 2.38 214 3.06
 230  0.023  0.330  0.502- 148 1.64 156 1.64  70 1.65 120 1.66 203 3.11 234 3.11 236 3.13
 231  0.575  0.695  0.436-  56 1.51  88 1.52 134 1.65  76 1.68 221 3.00 258 3.06 245 3.10
 232  0.230  0.753  0.452- 124 1.63 164 1.66  69 1.66  61 1.67 242 2.97 214 3.01 217 3.09
 233  0.594  0.283  0.548- 158 1.63  99 1.63 130 1.63 146 1.64 222 3.11
 234  0.975  0.272  0.603-  85 1.63  54 1.65 178 1.66 156 1.67 204 3.07 230 3.11
 235  0.889  0.025  0.424-  75 1.64 160 1.64  60 1.65 131 1.66 223 3.07 220 3.13
 236  0.105  0.196  0.518- 133 1.61 132 1.62 141 1.64 148 1.65 204 3.05 230 3.13
 237  0.048  0.733  0.483- 150 1.63  90 1.65  82 1.65 114 1.66 255 3.05 261 3.14
 238  0.232  0.206  0.561- 123 1.62  71 1.63 133 1.63 161 1.65 260 3.02
 239  0.561  0.258  0.381- 106 1.45 101 1.59 143 1.66 179 1.66 247 2.87 208 3.08
 240  0.480  0.632  0.626- 117 1.62 188 1.65 112 1.68  73 1.71 264 2.80 205 3.14
 241  0.281  0.770  0.598- 180 1.64  78 1.64 190 1.65 163 1.65 200 3.06
 242  0.209  0.643  0.372- 181 1.65 138 1.67  69 1.67 137 1.68 232 2.97
 243  0.741  0.711  0.536- 152 1.61 118 1.63  94 1.63 104 1.64 216 2.90 245 2.91 259 3.07
 244  0.987  0.991  0.550-  49 1.63 105 1.64  64 1.68 195 1.69 204 2.39 220 3.06
 245  0.703  0.737  0.434-  83 1.65 116 1.65 134 1.66 118 1.69 243 2.91 212 3.06 231 3.10
 246  0.788  0.060  0.577-  84 1.64 119 1.64 108 1.66 128 1.68 219 3.14
 247  0.456  0.328  0.409- 135 1.66 106 1.66  62 1.67 139 1.69 239 2.87 227 3.07
 248  0.450  0.935  0.594-  57 1.65 191 1.66 197 1.69 107 1.69 249 2.36 262 2.75
 249  0.509  0.040  0.586- 136 1.62 189 1.65 107 1.70 197 1.70 248 2.36 222 2.85 209 3.14
 250  0.244  0.370  0.421-  55 1.65  58 1.66 182 1.66 162 1.71 225 3.11 206 3.14
 251  0.659  0.330  0.450- 155 1.64 143 1.65 151 1.65 158 1.65
 252  0.461  0.316  0.528-  99 1.61 139 1.64  89 1.68 115 1.71
 253  0.337  0.590  0.399- 138 1.65 183 1.67  46 1.67  45 1.68
 254  0.803  0.476  0.580-  63 1.63 159 1.65 142 1.66 100 1.66 259 2.91 224 3.01
 255  0.069  0.899  0.481-  82 1.50  66 1.64 147 1.65  49 1.66 237 3.05 214 3.07 202 3.11
 256  0.212  0.144  0.374-  77 1.65 140 1.65 185 1.66 184 1.69 260 3.12 210 3.14
 257  0.078  0.494  0.495-  96 1.63  70 1.64 165 1.65  80 1.66 261 3.10 199 3.13
 258  0.558  0.852  0.475- 144 1.29 186 1.60  56 1.66 187 1.67 212 2.83 231 3.06
 259  0.719  0.585  0.610-  91 1.64 192 1.64  94 1.65 100 1.65 205 2.86 254 2.91 224 2.93 243 3.07

 260  0.287  0.210  0.459- 161 1.63 110 1.63  55 1.66 140 1.67 238 3.02 256 3.12
 261  0.088  0.626  0.568- 150 1.63 126 1.63  96 1.64 157 1.65 257 3.10 217 3.12 237 3.14
 262  0.354  0.018  0.578- 149 1.63  57 1.66 196 1.69  48 1.70 229 2.38 248 2.75 209 3.14
 263  0.490  0.475  0.573- 121 1.63 115 1.66  65 1.68  73 1.69 264 2.95
 264  0.485  0.501  0.681- 198 1.71 112 1.92  65 1.93  73 2.60 240 2.80 263 2.95
 
  LATTYP: Found a simple orthorhombic cell.
 ALAT       =    18.1212369514
 B/A-ratio  =     1.2919258579
 C/A-ratio  =     1.4835282260
  
  Lattice vectors:
  
 A1 = (   0.0000000000, -18.1212369514,   0.0000000000)
 A2 = ( -23.4112945954,   0.0000000000,   0.0000000000)
 A3 = (   0.0000000000,   0.0000000000, -26.8833665073)


Analysis of symmetry for initial positions (statically):
=====================================================================
 Subroutine PRICEL returns:
 Original cell was already a primitive cell.
 

 Routine SETGRP: Setting up the symmetry group for a 
 simple orthorhombic supercell.


 Subroutine GETGRP returns: Found  1 space group operations
 (whereof  1 operations were pure point group operations)
 out of a pool of  8 trial point group operations.


The static configuration has the point symmetry C_1 .


Analysis of symmetry for dynamics (positions and initial velocities):
=====================================================================
 Subroutine PRICEL returns:
 Original cell was already a primitive cell.
 

 Routine SETGRP: Setting up the symmetry group for a 
 simple orthorhombic supercell.


 Subroutine GETGRP returns: Found  1 space group operations
 (whereof  1 operations were pure point group operations)
 out of a pool of  8 trial point group operations.


The dynamic configuration has the point symmetry C_1 .


Analysis of constrained symmetry for selective dynamics:
=====================================================================
 Subroutine PRICEL returns:
 Original cell was already a primitive cell.
 

 Routine SETGRP: Setting up the symmetry group for a 
 simple orthorhombic supercell.


 Subroutine GETGRP returns: Found  1 space group operations
 (whereof  1 operations were pure point group operations)
 out of a pool of  8 trial point group operations.


The constrained configuration has the point symmetry C_1 .


 Subroutine INISYM returns: Found  1 space group operations
 (whereof  1 operations are pure point group operations),
 and found     1 'primitive' translations

 
 
 KPOINTS: KPOINTS created by Atomic Simulation Env

Automatic generation of k-mesh.
Space group operators:
 irot       det(A)        alpha          n_x          n_y          n_z        tau_x        tau_y        tau_z
    1     1.000000     0.000001     1.000000     0.000000     0.000000     0.000000     0.000000     0.000000
 
 Subroutine IBZKPT returns following result:
 ===========================================
 
 Found      5 irreducible k-points:
 
 Following reciprocal coordinates:
            Coordinates               Weight
  0.000000  0.000000  0.000000      1.000000
  0.333333  0.000000  0.000000      2.000000
  0.000000  0.333333  0.000000      2.000000
  0.333333  0.333333  0.000000      2.000000
 -0.333333  0.333333  0.000000      2.000000
 
 Following cartesian coordinates:
            Coordinates               Weight
  0.000000  0.000000  0.000000      1.000000
  0.014238  0.000000  0.000000      2.000000
  0.000000  0.018395  0.000000      2.000000
  0.014238  0.018395  0.000000      2.000000
 -0.014238  0.018395  0.000000      2.000000
 
 
 Subroutine IBZKPT_HF returns following result:
 ==============================================
 
 Found      9 k-points in 1st BZ
 the following      9 k-points will be used (e.g. in the exchange kernel)
 Following reciprocal coordinates:   # in IRBZ
  0.000000  0.000000  0.000000    0.11111111   1 t-inv F
  0.333333  0.000000  0.000000    0.11111111   2 t-inv F
  0.000000  0.333333  0.000000    0.11111111   3 t-inv F
  0.333333  0.333333  0.000000    0.11111111   4 t-inv F
 -0.333333  0.333333  0.000000    0.11111111   5 t-inv F
 -0.333333  0.000000  0.000000    0.11111111   2 t-inv T
  0.000000 -0.333333  0.000000    0.11111111   3 t-inv T
 -0.333333 -0.333333  0.000000    0.11111111   4 t-inv T
  0.333333 -0.333333  0.000000    0.11111111   5 t-inv T


--------------------------------------------------------------------------------------------------------




 Dimension of arrays:
   k-points           NKPTS =      5   k-points in BZ     NKDIM =      5   number of bands    NBANDS=    792
   number of dos      NEDOS =    301   number of ions     NIONS =    264
   non local maximal  LDIM  =      6   non local SUM 2l+1 LMDIM =     18
   total plane-waves  NPLWV = ******
   max r-space proj   IRMAX =   2748   max aug-charges    IRDMAX=   9808
   dimension x,y,z NGX =   128 NGY =  100 NGZ =  150
   dimension x,y,z NGXF=   256 NGYF=  200 NGZF=  300
   support grid    NGXF=   256 NGYF=  200 NGZF=  300
   ions per type =              44 154  65   1
   NGX,Y,Z   is equivalent  to a cutoff of   9.09,  9.17,  9.28 a.u.
   NGXF,Y,Z  is equivalent  to a cutoff of  18.18, 18.35, 18.55 a.u.

 SYSTEM =  unknown system                          
 POSCAR =   H  O Si  W                             

 Startparameter for this run:
   NWRITE =      2    write-flag & timer
   PREC   = normal    normal or accurate (medium, high low for compatibility)
   ISTART =      0    job   : 0-new  1-cont  2-samecut
   ICHARG =      2    charge: 1-file 2-atom 10-const
   ISPIN  =      1    spin polarized calculation?
   LNONCOLLINEAR =      F non collinear calculations
   LSORBIT =      F    spin-orbit coupling
   INIWAV =      1    electr: 0-lowe 1-rand  2-diag
   LASPH  =      T    aspherical Exc in radial PAW
   METAGGA=      F    non-selfconsistent MetaGGA calc.

 Electronic Relaxation 1
   ENCUT  =  500.0 eV  36.75 Ry    6.06 a.u.  42.68 33.04 49.01*2*pi/ulx,y,z
   ENINI  =  500.0     initial cutoff
   ENAUG  =  605.4 eV  augmentation charge cutoff
   NELM   =     60;   NELMIN=  2; NELMDL= -5     # of ELM steps 
   EDIFF  = 0.1E-05   stopping-criterion for ELM
   LREAL  =      T    real-space projection
   NLSPLINE    = F    spline interpolate recip. space projectors
   LCOMPAT=      F    compatible to vasp.4.4
   GGA_COMPAT  = T    GGA compatible to vasp.4.4-vasp.4.6
   LMAXPAW     = -100 max onsite density
   LMAXMIX     =    2 max onsite mixed and CHGCAR
   VOSKOWN=      0    Vosko Wilk Nusair interpolation
   ROPT   =   -0.00050  -0.00050  -0.00050  -0.00050
 Ionic relaxation
   EDIFFG = -.5E-01   stopping-criterion for IOM
   NSW    =   3205    number of steps for IOM
   NBLOCK =      1;   KBLOCK =   3205    inner block; outer block 
   IBRION =      5    ionic relax: 0-MD 1-quasi-New 2-CG
   NFREE  =      2    steps in history (QN), initial steepest desc. (CG)
   ISIF   =      0    stress and relaxation
   IWAVPR =     11    prediction:  0-non 1-charg 2-wave 3-comb
   ISYM   =      2    0-nonsym 1-usesym 2-fastsym
   LCORR  =      T    Harris-Foulkes like correction to forces

   POTIM  = 0.0150    time-step for ionic-motion
   TEIN   =    0.0    initial temperature
   TEBEG  =    0.0;   TEEND  =   0.0 temperature during run
   SMASS  =  -3.00    Nose mass-parameter (am)
   estimated Nose-frequenzy (Omega)   =  0.10E-29 period in steps =****** mass=  -0.125E-25a.u.
   SCALEE = 1.0000    scale energy and forces
   NPACO  =    256;   APACO  = 16.0  distance and # of slots for P.C.
   PSTRESS=    0.0 pullay stress

  Mass of Ions in am
   POMASS =   1.00 16.00 28.09183.85
  Ionic Valenz
   ZVAL   =   1.00  6.00  4.00  6.00
  Atomic Wigner-Seitz radii
   RWIGS  =  -1.00 -1.00 -1.00 -1.00
  virtual crystal weights 
   VCA    =   1.00  1.00  1.00  1.00
   NELECT =    1234.0000    total number of electrons
   NUPDOWN=      -1.0000    fix difference up-down

 DOS related values:
   EMIN   =  10.00;   EMAX   =-10.00  energy-range for DOS
   EFERMI =   0.00
   ISMEAR =     0;   SIGMA  =   0.20  broadening in eV -4-tet -1-fermi 0-gaus

 Electronic relaxation 2 (details)
   IALGO  =     68    algorithm
   LDIAG  =      T    sub-space diagonalisation (order eigenvalues)
   LSUBROT=      F    optimize rotation matrix (better conditioning)
   TURBO    =      0    0=normal 1=particle mesh
   IRESTART =      0    0=no restart 2=restart with 2 vectors
   NREBOOT  =      0    no. of reboots
   NMIN     =      0    reboot dimension
   EREF     =   0.00    reference energy to select bands
   IMIX   =      4    mixing-type and parameters
     AMIX     =   0.40;   BMIX     =  1.00
     AMIX_MAG =   1.60;   BMIX_MAG =  1.00
     AMIN     =   0.10
     WC   =   100.;   INIMIX=   1;  MIXPRE=   1;  MAXMIX= -45

 Intra band minimization:
   WEIMIN = 0.0010     energy-eigenvalue tresh-hold
   EBREAK =  0.32E-09  absolut break condition
   DEPER  =   0.30     relativ break condition  

   TIME   =   0.40     timestep for ELM

  volume/ion in A,a.u.               =      43.20       291.53
  Fermi-wavevector in a.u.,A,eV,Ry     =   0.780095  1.474166  8.279804  0.608548
  Thomas-Fermi vector in A             =   1.883335
 
 Write flags
   LWAVE        =      T    write WAVECAR
   LDOWNSAMPLE  =      F    k-point downsampling of WAVECAR
   LCHARG       =      T    write CHGCAR
   LVTOT        =      F    write LOCPOT, total local potential
   LVHAR        =      F    write LOCPOT, Hartree potential only
   LELF         =      F    write electronic localiz. function (ELF)
   LORBIT       =      0    0 simple, 1 ext, 2 COOP (PROOUT), +10 PAW based schemes


 Dipole corrections
   LMONO  =      F    monopole corrections only (constant potential shift)
   LDIPOL =      T    correct potential (dipole corrections)
   IDIPOL =      3    1-x, 2-y, 3-z, 4-all directions 
   EPSILON=  1.0000000 bulk dielectric constant

 Exchange correlation treatment:
   GGA     =    RP    GGA type
   LEXCH   =     9    internal setting for exchange type
   VOSKOWN=      0    Vosko Wilk Nusair interpolation
   LHFCALC =     F    Hartree Fock is set to
   LHFONE  =     F    Hartree Fock one center treatment
   AEXX    =    0.0000 exact exchange contribution

 Linear response parameters
   LEPSILON=     F    determine dielectric tensor
   LRPA    =     F    only Hartree local field effects (RPA)
   LNABLA  =     F    use nabla operator in PAW spheres
   LVEL    =     F    velocity operator in full k-point grid
   LINTERFAST=   F  fast interpolation
   KINTER  =     0    interpolate to denser k-point grid
   CSHIFT  =0.1000    complex shift for real part using Kramers Kronig
   OMEGAMAX=  -1.0    maximum frequency
   DEG_THRESHOLD= 0.2000000E-02 threshold for treating states as degnerate
   RTIME   =   -0.100 relaxation time in fs
  (WPLASMAI=    0.000 imaginary part of plasma frequency in eV, 0.658/RTIME)
   DFIELD  = 0.0000000 0.0000000 0.0000000 field for delta impulse in time
 
 Orbital magnetization related:
   ORBITALMAG=     F  switch on orbital magnetization
   LCHIMAG   =     F  perturbation theory with respect to B field
   DQ        =  0.001000  dq finite difference perturbation B field
   LLRAUG    =     F  two centre corrections for induced B field



--------------------------------------------------------------------------------------------------------


 finite differences
   using selective dynamics as specified on POSCAR
   WARNING: If single coordinates had been selected the selection of coordinates
            is made according to the corresponding   d i r e c t   coordinates!
            Don't support selection of single cartesian coordinates -- sorry ...
  !
 charge density and potential will be updated during run
 non-spin polarized calculation
 RMM-DIIS sequential band-by-band and
  variant of blocked Davidson during initial phase
 perform sub-space diagonalisation
    before iterative eigenvector-optimisation
 modified Broyden-mixing scheme, WC =      100.0
 initial mixing is a Kerker type mixing with AMIX =  0.4000 and BMIX =      1.0000
 Hartree-type preconditioning will be used
 using additional bands          175
 real space projection scheme for non local part
 use partial core corrections
 calculate Harris-corrections to forces 
   (improved forces if not selfconsistent)
 use gradient corrections 
 use of overlap-Matrix (Vanderbilt PP)
 Gauss-broadening in eV      SIGMA  =   0.20


--------------------------------------------------------------------------------------------------------


  energy-cutoff  :      500.00
  volume of cell :    11405.04
      direct lattice vectors                 reciprocal lattice vectors
    23.411294595  0.000000000  0.000000000     0.042714426  0.000000000  0.000000000
     0.000000000 18.121236951  0.000000000     0.000000000  0.055183871  0.000000000
     0.000000000  0.000000000 26.883366507     0.000000000  0.000000000  0.037197722

  length of vectors
    23.411294595 18.121236951 26.883366507     0.042714426  0.055183871  0.037197722


 
 k-points in units of 2pi/SCALE and weight: KPOINTS created by Atomic Simulation Env
   0.00000000  0.00000000  0.00000000       0.111
   0.01423814  0.00000000  0.00000000       0.222
   0.00000000  0.01839462  0.00000000       0.222
   0.01423814  0.01839462  0.00000000       0.222
  -0.01423814  0.01839462  0.00000000       0.222
 
 k-points in reciprocal lattice and weights: KPOINTS created by Atomic Simulation Env
   0.00000000  0.00000000  0.00000000       0.111
   0.33333333  0.00000000  0.00000000       0.222
   0.00000000  0.33333333  0.00000000       0.222
   0.33333333  0.33333333  0.00000000       0.222
  -0.33333333  0.33333333  0.00000000       0.222
 
 position of ions in fractional coordinates (direct lattice) 
   0.76189686  0.10361499  0.65155595
   0.92642768  0.27866896  0.35633493
   0.79333970  0.20727890  0.37345652
   0.97453911  0.94360860  0.32530279
   0.62573266  0.96347285  0.37523120
   0.82053840  0.99500666  0.36899263
   0.74999307  0.14117876  0.45803819
   0.91537017  0.24943154  0.50967518
   0.58349286  0.30426355  0.30592717
   0.89149039  0.33459782  0.61663210
   0.58690162  0.35636448  0.61640821
   0.59424338  0.87134251  0.57788962
   0.03340132  0.33723372  0.65278613
   0.93527051  0.41951423  0.45410146
   0.74613838  0.53031199  0.42248819
   0.79699151  0.38113943  0.63397077
   0.59110202  0.56868283  0.37803474
   0.71843379  0.64593279  0.38346059
   0.84115291  0.54242660  0.41959617
   0.00476455  0.60379815  0.35777830
   0.82835870  0.71235667  0.46794226
   0.87567244  0.59963545  0.72221303
   0.51999031  0.98556476  0.42170307
   0.22309457  0.98015484  0.39320502
   0.21637369  0.23785146  0.31923033
   0.15750105  0.32980623  0.27898292
   0.34154688  0.15558571  0.33077276
   0.22271586  0.04575893  0.32273843
   0.51184107  0.82489438  0.54696129
   0.38011624  0.24278377  0.64733113
   0.24376160  0.09291436  0.59832570
   0.31538097  0.48713646  0.44243467
   0.40895618  0.43873486  0.40569060
   0.39849950  0.79311361  0.38878680
   0.24420236  0.65543008  0.29432688
   0.31174138  0.41847571  0.36925764
   0.40547429  0.58427965  0.33881989
   0.13935762  0.48797365  0.35192946
   0.59326935  0.69798713  0.35239799
   0.46900683  0.86142747  0.44382838
   0.12139988  0.32316811  0.61176573
   0.06833142  0.66817974  0.64431961
   0.23921518  0.38831320  0.68290826
   0.24802235  0.81401664  0.67037226
   0.36894173  0.64835510  0.43900002
   0.34681565  0.50403387  0.42038813
   0.86113195  0.56666079  0.69683207
   0.34899689  0.95747561  0.53033437
   0.03352557  0.93215037  0.52869657
   0.63635548  0.07886855  0.48937667
   0.06864615  0.05226542  0.39511073
   0.45189954  0.12956232  0.42059728
   0.80588415  0.21365018  0.48316661
   0.97337759  0.18129939  0.59881855
   0.27476529  0.29917287  0.44851223
   0.55635417  0.77509129  0.44175101
   0.39259838  0.97076785  0.61941032
   0.17751724  0.34996845  0.40527312
   0.86686865  0.68418689  0.63716041
   0.86569601  0.96717693  0.46703846
   0.30104714  0.76093683  0.45792526
   0.42161095  0.26125222  0.37959630
   0.81132936  0.46549806  0.52015689
   0.98418432  0.07266101  0.52107182
   0.51645301  0.44427494  0.62738483
   0.03453641  0.91994776  0.42940526
   0.96303654  0.30319531  0.35125762
   0.06962669  0.33610577  0.37637178
   0.20829566  0.72864429  0.39536010
   0.03890126  0.41910192  0.49910875
   0.23963866  0.28584032  0.58789286
   0.39797117  0.19469746  0.64454619
   0.46040479  0.55476780  0.59419063
   0.90997712  0.74920632  0.55744043
   0.86912727  0.10804334  0.44227833
   0.57257679  0.66733185  0.37613173
   0.14242656  0.15912550  0.37597224
   0.35062624  0.76563361  0.60658416
   0.91099605  0.84504757  0.48317962
   0.06133801  0.53687171  0.44225348
   0.70833903  0.55516655  0.41995768
   0.07548726  0.81680680  0.48299416
   0.70046477  0.82755572  0.43263529
   0.73030920  0.04910819  0.54295687
   0.91850853  0.30068130  0.63212753
   0.73582912  0.85374332  0.61311083
   0.62512195  0.52739400  0.48637871
   0.55657330  0.62970304  0.46724942
   0.42657651  0.24530121  0.55513591
   0.97829009  0.72824363  0.47679564
   0.65435209  0.59457508  0.63335659
   0.39691821  0.74621765  0.51514490
   0.60269007  0.51766545  0.38567099
   0.71954842  0.63153020  0.55702369
   0.14662622  0.36408077  0.61985109
   0.06631486  0.54854417  0.54193363
   0.81895426  0.88485305  0.53659572
   0.82821553  0.35538514  0.45190334
   0.52803273  0.29766664  0.53187581
   0.73702533  0.49954995  0.59520524
   0.55743394  0.17243111  0.39490854
   0.80596408  0.25641257  0.38329286
   0.23744622  0.95325075  0.50791956
   0.69318969  0.77704511  0.54141464
   0.92398092  0.95011843  0.55273740
   0.52573722  0.31778112  0.39855594
   0.46886299  0.98916416  0.54603211
   0.83771834  0.09503888  0.53977608
   0.53790325  0.11641749  0.48623709
   0.35019344  0.18660873  0.43963639
   0.01176032  0.96241390  0.33524376
   0.45857135  0.60143746  0.68236093
   0.65496522  0.92539750  0.37922825
   0.07629334  0.68602626  0.43588102
   0.45314250  0.40340897  0.55162324
   0.71921944  0.70042085  0.37958300
   0.44948242  0.70117034  0.59882785
   0.75255106  0.70932458  0.47629548
   0.77853880  0.12128097  0.62076111
   0.99327462  0.30801347  0.44840298
   0.53279682  0.51014347  0.53172654
   0.81677759  0.49906173  0.42344221
   0.23569443  0.14480192  0.60513200
   0.20353331  0.83070132  0.47053363
   0.24007190  0.55855894  0.52284987
   0.06102857  0.62545010  0.62362474
   0.04607407  0.60234669  0.35417863
   0.80134897  0.97920006  0.60569943
   0.53799091  0.02769749  0.40450275
   0.60659859  0.31231401  0.60495272
   0.86154611  0.00408085  0.36920633
   0.09491131  0.14902284  0.46708233
   0.17165285  0.20420000  0.53056679
   0.64098865  0.70443872  0.45481558
   0.43678778  0.40976848  0.38641325
   0.57469576  0.05789564  0.57104438
   0.15143775  0.59340802  0.38895836
   0.26773979  0.60233753  0.39230630
   0.44025846  0.32219818  0.47032443
   0.23800967  0.15851113  0.42990119
   0.07298231  0.15027992  0.56255788
   0.84535210  0.54391798  0.60002326
   0.62117943  0.27993988  0.41090545
   0.60266699  0.89152667  0.46722346
   0.03138539  0.19528983  0.38899188
   0.60813533  0.19498473  0.54750963
   0.13279973  0.93835464  0.47948708
   0.08026763  0.28040329  0.51157974
   0.37292578  0.10322589  0.56916053
   0.06664617  0.69712421  0.53574689
   0.66648838  0.41538488  0.43001156
   0.79950522  0.72983894  0.56415801
   0.70383856  0.95720843  0.47018456
   0.59695575  0.63445006  0.55426702
   0.72284030  0.29368465  0.45166811
   0.97759752  0.31410655  0.54731604
   0.15826079  0.62970414  0.57039612
   0.63333384  0.32678308  0.50780070
   0.81962346  0.39622936  0.60549191
   0.95857820  0.02724304  0.41695300
   0.28223012  0.19516754  0.51865209
   0.24925755  0.44303289  0.46105570
   0.27236230  0.84901881  0.56809084
   0.20366815  0.68557317  0.48688872
   0.14712345  0.47606988  0.49254493
   0.22467060  0.42236960  0.55677511
   0.91141698  0.45274460  0.47371881
   0.86978818  0.70456011  0.46415352
   0.73812021  0.09283462  0.44522965
   0.22218344  0.92978119  0.40794682
   0.25141936  0.40194818  0.64973409
   0.63118773  0.88392284  0.59330189
   0.41022327  0.78906239  0.42343739
   0.91777135  0.19603829  0.50824515
   0.13254706  0.44353611  0.33227266
   0.15514768  0.30352326  0.31056042
   0.37300515  0.13090704  0.34795342
   0.03449236  0.29198945  0.63347872
   0.57268926  0.25686819  0.32009968
   0.24560352  0.77005129  0.64990884
   0.20737430  0.64840505  0.31036906
   0.27537441  0.39219130  0.36737583
   0.36535081  0.59758663  0.34222079
   0.22638085  0.05618082  0.35811888
   0.24120334  0.19607823  0.32934297
   0.50127293  0.89230162  0.45484168
   0.55068262  0.82756309  0.53434464
   0.54675650  0.65666356  0.63610619
   0.47892263  0.12062985  0.59638586
   0.26270721  0.69385846  0.56857107
   0.44373354  0.84549698  0.58148608
   0.76591010  0.61728239  0.64930136
   0.84532958  0.83196270  0.62287034
   0.64286380  0.74053025  0.62174795
   0.00817675  0.03340467  0.60299090
   0.28501607  0.00088050  0.59383577
   0.50425064  0.97014459  0.62830591
   0.50266984  0.46756794  0.73858511
   0.08322528  0.60642030  0.40641308
   0.40902352  0.76501091  0.57437310
   0.84176382  0.44145312  0.46783897
   0.01708949  0.99048204  0.39361135
   0.01470021  0.28419027  0.39108141
   0.00953530  0.11496147  0.57249695
   0.61110561  0.65983303  0.61163399
   0.21397176  0.47571126  0.50979356
   0.91506213  0.75556094  0.49625454
   0.52057854  0.11045563  0.42598659
   0.41910714  0.16808241  0.58932207
   0.08345253  0.13917208  0.40698087
   0.70189793  0.04484625  0.48732303
   0.66505935  0.89803746  0.43747644
   0.65009874  0.50402706  0.43015089
   0.19846065  0.91248223  0.46399069
   0.21419298  0.36642338  0.60367945
   0.67473568  0.81470605  0.59469688
   0.21666968  0.64139261  0.53847982
   0.36878912  0.73512773  0.45920930
   0.79810896  0.88905498  0.59570884
   0.87988897  0.91235483  0.51195784
   0.57699867  0.57551469  0.51225155
   0.58990541  0.11520960  0.52524802
   0.85812234  0.15211323  0.49517595
   0.83581349  0.60375770  0.64594807
   0.13373852  0.36031890  0.35687228
   0.79065529  0.27993925  0.44187265
   0.39917610  0.17749484  0.39600320
   0.85623759  0.75022980  0.59651886
   0.28305130  0.93406736  0.54943978
   0.02307473  0.33044751  0.50224551
   0.57455938  0.69549008  0.43556436
   0.23024095  0.75260050  0.45196954
   0.59425762  0.28345867  0.54836053
   0.97512136  0.27206929  0.60270911
   0.88890636  0.02540900  0.42420019
   0.10481864  0.19551459  0.51770582
   0.04814566  0.73303709  0.48263019
   0.23200773  0.20579785  0.56098861
   0.56140781  0.25778527  0.38122611
   0.47993563  0.63191654  0.62643927
   0.28133146  0.77011833  0.59760745
   0.20850083  0.64339984  0.37179454
   0.74054020  0.71117557  0.53588550
   0.98678483  0.99061601  0.55032768
   0.70310456  0.73681815  0.43426040
   0.78798219  0.05975828  0.57680350
   0.45631390  0.32845159  0.40928789
   0.45042348  0.93460765  0.59423825
   0.50919841  0.03968622  0.58602195
   0.24424715  0.37040632  0.42094710
   0.65852534  0.33000211  0.45034791
   0.46077136  0.31624544  0.52847897
   0.33729937  0.58994254  0.39908301
   0.80344155  0.47648507  0.57983297
   0.06920979  0.89885916  0.48050551
   0.21190758  0.14445432  0.37359659
   0.07823286  0.49398500  0.49468762
   0.55757019  0.85234010  0.47473025
   0.71866556  0.58494098  0.60961433
   0.28664212  0.21010174  0.45911077
   0.08804423  0.62556893  0.56760201
   0.35391312  0.01759422  0.57846069
   0.48966138  0.47516885  0.57310172
   0.48468612  0.50092560  0.68131294
 
 position of ions in cartesian coordinates  (Angst):
  17.83699194  1.87763180 17.51601744
  21.68887124  5.04982631  9.57948250
  18.57310935  3.75615001 10.03976840
  22.81522226 17.09935504  8.74523415
  14.64921175 17.45931981 10.08747787
  19.20986618 18.03075152  9.91976410
  17.55830880  2.55833369 12.31360861
  21.43000063  4.52000796 13.70178463
  13.66032332  5.51363182  8.22435231
  20.87094420  6.06332638 16.57714673
  13.74012671  6.45776520 16.57112795
  13.91200694 15.78980407 15.53561859
   0.78196819  6.11109206 17.54908885
  21.89589338  7.60211669 12.20777585
  17.46806539  9.60990927 11.35790489
  18.65860311  6.90671797 17.04326862
  13.83846347 10.30523625 10.16284657
  16.81946503 11.70510107 10.30871170
  19.69247867  9.82944088 11.28015755
   0.11154425 10.94156933  9.61828518
  19.39294954 12.90878407 12.57986315
  20.50062550 10.86613612 19.41551765
  12.17364643 17.85965258 11.33679820
   5.22293275 17.76161802 10.57067472
   5.06558822  4.31016263  8.58198589
   3.68730349  5.97649684  7.50000000
   7.99605455  2.81940544  8.89228530
   5.21406665  0.82920834  8.67629559
  11.98286198 14.94810655 14.70416072
   8.89901329  4.39954229 17.40243998
   5.70677468  1.68372320 16.08500898
   7.38347683  8.82751530 11.89413327
   9.57419369  7.95041833 10.90632902
   9.32938927 14.37219961 10.45189795
   5.71709332 11.87720376  7.91249741
   7.29826932  7.58329756  9.92688859
   9.49267817 10.58787005  9.10861924
   3.26254231  8.84268608  9.46104865
  13.88920341 12.64839014  9.47364424
  10.98005707 15.61013129 11.93160111
   2.84212829  5.85620585 16.44632247
   1.59972699 12.10824347 17.32148011
   5.60033698  7.03671549 18.35887305
   5.80652436 14.75098841 18.02186313
   8.63740362 11.74899635 11.80179838
   8.11940335  9.13371715 11.30144811
  20.16021375 10.26859439 18.73319202
   8.17046901 17.35064247 14.25717319
   0.78487697 16.89171774 14.21314360
  14.89790566  1.42919560 13.15609244
   1.60709516  0.94711409 10.62190669
  10.57955332  2.34782959 11.30707087
  18.86679123  3.87160553 12.98914499
  22.78802954  3.28536928 16.09825854
   6.43261122  5.42138249 12.05751853
  13.02497128 14.04561295 11.87575437
   9.19123624 17.59151420 16.65183464
   4.15590840  6.34186120 10.89510594
  20.29451743 12.39831276 17.12901690
  20.26706433 17.52644236 12.55556607
   7.04790320 13.78911669 12.31057251
   9.87045805  4.73421333 10.20482654
  18.99427061  8.43540071 13.98356844
  23.04102897  1.31670730 14.00816472
  12.09083352  8.05081147 16.86621630
   0.80854198 16.67059137 11.54385891
  22.54593219  5.49427402  9.44298747
   1.63005096  6.09065222 10.11814055
   4.87647100 13.20393591 10.62861051
   0.91072893  7.59464512 13.41772355
   5.61025132  5.17978014 15.80453915
   9.31702039  3.52815884 17.32757158
  10.77867228 10.05307867 15.97384451
  21.30374243 13.57654523 14.98587531
  20.34739459  1.95787901 11.88993046
  13.40476402 12.09287863 10.11168720
   3.33439013  2.88355087 10.10739962
   8.20861426 13.87422799 16.30702422
  21.32759690 15.31330728 12.98949491
   1.43600223  9.72877939 11.88926245
  16.58313365 10.06030463 11.28987623
   1.76725442 14.80154966 12.98450890
  16.39878711 14.99633320 11.63069310
  17.09748387  0.88990118 14.59650842
  21.50347372  5.44871708 16.99371616
  17.22671228 15.47088497 16.48248326
  14.63491423  9.55703168 13.07549710
  13.03010146 11.41099800 12.56123752
   9.98670824  4.44516127 14.92392219
  22.90303759 13.19667544 12.81787194
  15.31922960 10.77443597 17.02675743
   9.29236905 13.52238681 13.84882911
  14.10975474  9.38073831 10.36813464
  16.84556001 11.44410833 14.97467195
   3.43270953  6.59759396 16.66368415
   1.55251668  9.94029888 14.56900036
  19.17277934 16.03463180 14.42549930
  19.38959778  6.44001838 12.14868300
  12.36192981  5.39408768 14.29861241
  17.25471724  9.05246308 16.00112050
  13.05025010  3.12466491 10.61647095
  18.86866258  4.64651295 10.30420244
   5.55892333 17.27408272 13.65458756
  16.22846803 14.08101852 14.55504832
  21.63158955 17.21732113 14.85944202
  12.30818899  5.75858697 10.71452528
  10.97668952 17.92487811 14.67918137
  19.61207081  1.72222198 14.51099812
  12.59301152  2.10962891 13.07168996
   8.19848185  3.38158106 11.81890631
   0.27532438 17.44013033  9.01248080
  10.73574886 10.89879068 18.34415895
  15.33358375 16.76934745 10.19493214
   1.78612593 12.43164437 11.71794928
  10.60865256  7.31026949 14.82948963
  16.83785811 12.69249221 10.20446890
  10.52296527 12.70607387 16.09850862
  17.61819454 12.85383871 12.80442605
  18.22660130  2.19776122 16.68814842
  23.25384464  5.58158514 12.05458163
  12.47346322  9.24443075 14.29459937
  19.12182067  9.04361594 11.38355200
   5.51791164  2.62398989 16.26798547
   4.76497818 15.05333538 12.64952801
   5.62039405 10.12177885 14.05596463
   1.42875772 11.33392945 16.76513251
   1.07865368 10.91526714  9.52151395
  18.76061676 17.74431622 16.28323978
  12.59506368  0.50191281 10.87439573
  14.20125827  5.65951611 16.26316573
  20.16990973  0.07395004  9.92550906
   2.22199659  2.70047811 12.55674536
   4.01861538  3.70035655 14.26342157
  15.00637423 12.76530097 12.22697399
  10.22576747  7.42551174 10.38808912
  13.45437175  1.04914067 15.35159535
   3.54535369 10.75328740 10.45651017
   6.26813510 10.91510113 10.54651395
  10.30702051  5.83862961 12.64390410
   5.57211440  2.87241773 11.55719116
   1.70861046  2.72325803 15.12344962
  19.79078710  9.85646652 16.13064519
  14.54261460  5.07285684 11.04652184
  14.10921452 16.15556596 12.56053950
   0.73477264  3.53889327 10.45741115
  14.23723546  3.53336451 14.71890206
   3.10901352 17.00414686 12.89022683
   1.87916922  5.08125448 13.75298568
   8.73067525  1.87058076 15.30095123
   1.56027315 12.63275291 14.40267997
  15.60335582  7.52728779 11.56015827
  18.71745230 13.22558432 15.16646651
  16.47777184 17.34580083 12.64014391
  13.97550688 11.49701990 14.90056339
  16.92262721  5.32192921 12.14235921
  22.88682349  5.69199917 14.71369776
   3.70509002 11.41101797 15.33416790
  14.82716522  5.92171361 13.65139239
  19.18844633  7.18016611 16.27766096
  22.44155659  0.49367766 11.20910044
   6.60737238  3.53667730 13.94311435
   5.83544193  8.02830396 12.39472924
   6.37635407 15.38527100 15.27219431
   4.76813504 12.42343385 13.08920785
   3.44435051  8.62697504 13.24126574
   5.25982970  7.65385967 14.96798929
  21.33745138  8.20429214 12.73515651
  20.36286723 12.76750071 12.47800922
  17.28034963  1.68227812 11.96927179
   5.20160189 16.84878525 10.96698378
   5.88605260  7.28379823 17.46703962
  14.77692188 16.01777527 15.94995228
   9.60385771 14.29878658 11.38342242
  21.48621551  3.55245637 13.66334053
   3.10309823  8.03742302  8.93260776
   3.63220806  5.50021683  8.34890949
   8.73253334  2.37219755  9.35415932
   0.80751081  5.29120992 17.03004060
  13.40739700  4.65476936  8.60535697
   5.74989635 13.95428181 17.47173757
   4.85490080 11.74990155  8.34376522
   6.44687148  7.10699146  9.87629901
   8.55333550 10.82900896  9.20004704
   5.29986878  1.01806603  9.62744117
   5.64688233  3.55318002  8.85384768
  11.73544815 16.16960912 12.22767567
  12.89219315 14.99646685 14.36498274
  12.80027740 11.89955595 17.10067580
  11.21219867  2.18596211 16.03285962
   6.15031595 12.57357352 15.28510441
  10.38837651 15.32145106 15.63230331
  17.93094696 11.18592041 17.45540654
  19.79025993 15.07619324 16.74485155
  15.05027384 13.41932420 16.71467795
   0.19142836  0.60533399 16.21042549
   6.67259509  0.01595572 15.96430472
  11.80516031 17.58021999 16.89097801
  11.76815165  8.47290949 19.85565425
   1.94841153 10.98908596 10.92575188
   9.57577015 13.86294392 15.44108259
  19.70678075  7.99967650 12.57708649
   0.40008717 17.94875972 10.58159830
   0.34415087  5.14987929 10.51358498
   0.22323362  2.08324409 15.39064528
  14.30677348 11.95699075 16.44278062
   5.00935584  8.62047653 13.70496711
  21.42278905 13.69169878 13.34099278
  12.18741762  2.00159257 11.45195358
   9.81184084  3.04586121 15.84296129
   1.95373172  2.52197018 10.94101594
  16.43233932  0.81266960 13.10088356
  15.56990048 16.27354967 11.76083937
  15.21965321  9.13359373 11.56390395
   4.64622069 16.53530673 12.47363180
   5.01453506  6.64004485 16.22893581
  15.79643572 14.76348140 15.98745406
   5.07251781 11.62282750 14.47615048
   8.63383069 13.32142384 12.34509184
  18.68476392 16.11077603 16.01465919
  20.59933986 16.53299805 13.76315012
  13.50828595 10.42903815 13.77104607
  13.81044933  2.08774045 14.12043512
  20.08975493  2.75647993 13.31199648
  19.56747585 10.94083630 17.36525883
   3.13099191  6.52942423  9.59392828
  18.51026388  5.07284540 11.87902451
   9.34522920  3.21642612 10.64589911
  20.04563054 13.59509203 16.03643526
   6.62659738 16.92645592 14.77079106
   0.54020936  5.98811771 13.50205012
  13.45117902 12.60314055 11.70943634
   5.39023881 13.63805193 12.15046292
  13.91234010  5.13662168 14.74177706
  22.82885353  4.93023216 16.20284979
  20.81044864  0.46044249 11.40392910
   2.45394000  3.54296623 13.91767518
   1.12715225 13.28353886 12.97472440
   5.43160136  3.72931164 15.08126247
  13.14328356  4.67138795 10.24864117
  11.23591450 11.45110936 16.84079655
   6.58633359 13.95549678 16.06570013
   4.88127424 11.65920104  9.99508876
  17.33700467 12.88738098 14.40640636
  23.10191042 17.95118744 14.79466082
  16.46058793 13.35205634 11.67438144
  18.44768330  1.08289400 15.50642002
  10.68289909  5.95194918 11.00303640
  10.54499681 16.93624674 15.97512474
  11.92099404  0.71916345 15.75424284
   5.71814202  6.71222076 11.31647527
  15.41693082  5.98004644 12.10686792
  10.78725398  5.73075862 14.20729388
   7.89661487 10.69048859 10.72869482
  18.80960673  8.63449889 15.58786217
   1.62029077 16.28843975 12.91760565
   4.96103076  2.61769098 10.04353415
   1.83153245  8.95161915 13.29886860
  13.05343995 15.44545689 12.76234739
  16.82489122 10.59985406 16.38848543
   6.71066321  3.80730339 12.34244318
   2.06122939 11.33608274 15.25905281
   8.28556421  0.31882902 15.55097078
  11.46360678  8.61064731 15.40690366
  11.34712954  9.07739154 18.31598536
 


--------------------------------------------------------------------------------------------------------


 k-point  1 :   0.0000 0.0000 0.0000  plane waves:  289505
 k-point  2 :   0.3333 0.0000 0.0000  plane waves:  289422
 k-point  3 :   0.0000 0.3333 0.0000  plane waves:  289550
 k-point  4 :   0.3333 0.3333 0.0000  plane waves:  289551
 k-point  5 :  -0.3333 0.3333 0.0000  plane waves:  289551

 maximum and minimum number of plane-waves per node :    289551   289422

 maximum number of plane-waves:    289551
 maximum index in each direction: 
   IXMAX=   43   IYMAX=   33   IZMAX=   49
   IXMIN=  -43   IYMIN=  -33   IZMIN=  -49


 serial   3D FFT for wavefunctions
 parallel 3D FFT for charge:
    minimum data exchange during FFTs selected (reduces bandwidth)


 total amount of memory used by VASP MPI-rank0   298737. kBytes
=======================================================================

   base      :      30000. kBytes
   nonlr-proj:      27086. kBytes
   fftplans  :      11832. kBytes
   grid      :      85689. kBytes
   one-center:       4105. kBytes
   wavefun   :     140025. kBytes
 
     INWAV:  cpu time    0.0002: real time    0.0006
 Broyden mixing: mesh for mixing (old mesh)
   NGX = 85   NGY = 67   NGZ = 99
  (NGX  =256   NGY  =200   NGZ  =300)
  gives a total of 563805 points

 initial charge density was supplied:
 charge density of overlapping atoms calculated
 number of electron    1234.0000000 magnetization 
 keeping initial charge density in first step


--------------------------------------------------------------------------------------------------------


 Maximum index for non-local projection operator         2613
 Maximum index for augmentation-charges          371 (set IRDMAX)


--------------------------------------------------------------------------------------------------------


 First call to EWALD:  gamma=   0.079
 Maximum number of real-space cells 3x 3x 2
 Maximum number of reciprocal cells 3x 2x 3

    FEWALD:  cpu time    0.0342: real time    0.0345


--------------------------------------- Iteration      1(   1)  ---------------------------------------


    POTLOK:  cpu time    0.5320: real time    0.5793
    SETDIJ:  cpu time    0.8071: real time    0.8082
     EDDAV:  cpu time   87.3990: real time   87.4242
       DOS:  cpu time    0.0044: real time    0.0063
    --------------------------------------------
      LOOP:  cpu time   88.7429: real time   88.8186

 eigenvalue-minimisations  :  8580
 total energy-change (2. order) : 0.1241402E+05  (-0.4832752E+05)
 number of electron    1234.0000000 magnetization 
 augmentation part     1234.0000000 magnetization 

 DIPCOR: dipole corrections for dipol
 direction  3 min pos    43,
 dipolmoment           0.000000      0.000000      0.008178 electrons x Angstroem
 Tr[quadrupol]    -91491.821213

 energy correction for charged system         0.000000 eV
 dipol+quadrupol energy correction           -0.000001 eV
 added-field ion interaction          0.621070 eV  (added to PSCEN)


 Free energy of the ion-electron system (eV)
  ---------------------------------------------------
  alpha Z        PSCENC =       470.43594947
  Ewald energy   TEWEN  =    309238.66747762
  -Hartree energ DENC   =   -370884.90342746
  -exchange      EXHF   =         0.00000000
  -V(xc)+E(xc)   XCENC  =      3707.93631210
  PAW double counting   =     59504.26137368   -58519.80097083
  entropy T*S    EENTRO =        -1.74721285
  eigenvalues    EBANDS =     -5118.72746661
  atomic energy  EATOM  =     74017.90170214
  Solvation  Ediel_sol  =         0.00000000
  ---------------------------------------------------
  free energy    TOTEN  =     12414.02373725 eV

  energy without entropy =    12415.77095010  energy(sigma->0) =    12414.89734368


--------------------------------------------------------------------------------------------------------




--------------------------------------- Iteration      1(   2)  ---------------------------------------


     EDDAV:  cpu time  141.9041: real time  141.9511
       DOS:  cpu time    0.0028: real time    0.0035
    --------------------------------------------
      LOOP:  cpu time  141.9070: real time  141.9546

 eigenvalue-minimisations  : 12408
 total energy-change (2. order) :-0.1209097E+05  (-0.1182460E+05)
 number of electron    1234.0000000 magnetization 
 augmentation part     1234.0000000 magnetization 

 DIPCOR: dipole corrections for dipol
 direction  3 min pos    43,
 dipolmoment           0.000000      0.000000      0.008178 electrons x Angstroem
 Tr[quadrupol]    -91491.821213

 energy correction for charged system         0.000000 eV
 dipol+quadrupol energy correction           -0.000001 eV
 added-field ion interaction          0.621070 eV  (added to PSCEN)


 Free energy of the ion-electron system (eV)
  ---------------------------------------------------
  alpha Z        PSCENC =       470.43594947
  Ewald energy   TEWEN  =    309238.66747762
  -Hartree energ DENC   =   -370884.90342746
  -exchange      EXHF   =         0.00000000
  -V(xc)+E(xc)   XCENC  =      3707.93631210
  PAW double counting   =     59504.26137368   -58519.80097083
  entropy T*S    EENTRO =        -0.00039009
  eigenvalues    EBANDS =    -17211.44908720
  atomic energy  EATOM  =     74017.90170214
  Solvation  Ediel_sol  =         0.00000000
  ---------------------------------------------------
  free energy    TOTEN  =       323.04893942 eV

  energy without entropy =      323.04932951  energy(sigma->0) =      323.04913447


--------------------------------------------------------------------------------------------------------




--------------------------------------- Iteration      1(   3)  ---------------------------------------


     EDDAV:  cpu time  103.8843: real time  103.9221
       DOS:  cpu time    0.0030: real time    0.0041
    --------------------------------------------
      LOOP:  cpu time  103.8873: real time  103.9261

 eigenvalue-minimisations  :  9240
 total energy-change (2. order) :-0.2300467E+04  (-0.2293009E+04)
 number of electron    1234.0000000 magnetization 
 augmentation part     1234.0000000 magnetization 

 DIPCOR: dipole corrections for dipol
 direction  3 min pos    43,
 dipolmoment           0.000000      0.000000      0.008178 electrons x Angstroem
 Tr[quadrupol]    -91491.821213

 energy correction for charged system         0.000000 eV
 dipol+quadrupol energy correction           -0.000001 eV
 added-field ion interaction          0.621070 eV  (added to PSCEN)


 Free energy of the ion-electron system (eV)
  ---------------------------------------------------
  alpha Z        PSCENC =       470.43594947
  Ewald energy   TEWEN  =    309238.66747762
  -Hartree energ DENC   =   -370884.90342746
  -exchange      EXHF   =         0.00000000
  -V(xc)+E(xc)   XCENC  =      3707.93631210
  PAW double counting   =     59504.26137368   -58519.80097083
  entropy T*S    EENTRO =        -0.03741626
  eigenvalues    EBANDS =    -19511.87921186
  atomic energy  EATOM  =     74017.90170214
  Solvation  Ediel_sol  =         0.00000000
  ---------------------------------------------------
  free energy    TOTEN  =     -1977.41821140 eV

  energy without entropy =    -1977.38079514  energy(sigma->0) =    -1977.39950327


--------------------------------------------------------------------------------------------------------




--------------------------------------- Iteration      1(   4)  ---------------------------------------


     EDDAV:  cpu time  110.0181: real time  110.0569
       DOS:  cpu time    0.0031: real time    0.0172
    --------------------------------------------
      LOOP:  cpu time  110.0212: real time  110.0741

 eigenvalue-minimisations  :  9900
 total energy-change (2. order) :-0.6313631E+02  (-0.6296225E+02)
 number of electron    1234.0000000 magnetization 
 augmentation part     1234.0000000 magnetization 

 DIPCOR: dipole corrections for dipol
 direction  3 min pos    43,
 dipolmoment           0.000000      0.000000      0.008178 electrons x Angstroem
 Tr[quadrupol]    -91491.821213

 energy correction for charged system         0.000000 eV
 dipol+quadrupol energy correction           -0.000001 eV
 added-field ion interaction          0.621070 eV  (added to PSCEN)


 Free energy of the ion-electron system (eV)
  ---------------------------------------------------
  alpha Z        PSCENC =       470.43594947
  Ewald energy   TEWEN  =    309238.66747762
  -Hartree energ DENC   =   -370884.90342746
  -exchange      EXHF   =         0.00000000
  -V(xc)+E(xc)   XCENC  =      3707.93631210
  PAW double counting   =     59504.26137368   -58519.80097083
  entropy T*S    EENTRO =        -0.07833945
  eigenvalues    EBANDS =    -19574.97460006
  atomic energy  EATOM  =     74017.90170214
  Solvation  Ediel_sol  =         0.00000000
  ---------------------------------------------------
  free energy    TOTEN  =     -2040.55452280 eV

  energy without entropy =    -2040.47618335  energy(sigma->0) =    -2040.51535307


--------------------------------------------------------------------------------------------------------




--------------------------------------- Iteration      1(   5)  ---------------------------------------


     EDDAV:  cpu time  109.8959: real time  109.9354
       DOS:  cpu time    0.0036: real time    0.0044
    CHARGE:  cpu time    2.5136: real time    2.5149
    MIXING:  cpu time    0.0114: real time    0.0124
    --------------------------------------------
      LOOP:  cpu time  112.4246: real time  112.4671

 eigenvalue-minimisations  :  9900
 total energy-change (2. order) :-0.1186269E+01  (-0.1185265E+01)
 number of electron    1234.0000131 magnetization 
 augmentation part      115.2842282 magnetization 

 DIPCOR: dipole corrections for dipol
 direction  3 min pos    43,
 dipolmoment           0.000000      0.000000      0.008178 electrons x Angstroem
 Tr[quadrupol]    -91491.821213

 energy correction for charged system         0.000000 eV
 dipol+quadrupol energy correction           -0.000001 eV
 added-field ion interaction          0.621070 eV  (added to PSCEN)


 Broyden mixing:
  rms(total) = 0.12829E+02    rms(broyden)= 0.12826E+02
  rms(prec ) = 0.13186E+02
  weight for this iteration     100.00

 Free energy of the ion-electron system (eV)
  ---------------------------------------------------
  alpha Z        PSCENC =       470.43594947
  Ewald energy   TEWEN  =    309238.66747762
  -Hartree energ DENC   =   -370884.90342746
  -exchange      EXHF   =         0.00000000
  -V(xc)+E(xc)   XCENC  =      3707.93631210
  PAW double counting   =     59504.26137368   -58519.80097083
  entropy T*S    EENTRO =        -0.08112599
  eigenvalues    EBANDS =    -19576.15808290
  atomic energy  EATOM  =     74017.90170214
  Solvation  Ediel_sol  =         0.00000000
  ---------------------------------------------------
[...]
     22.788030  3.285369 16.098259            0           0           0  
      6.432611  5.421382 12.057519            0           0           0  
     13.024971 14.045613 11.875754            0           0           0  
      9.191236 17.591514 16.651835            0           0           0  
      4.155908  6.341861 10.895106            0           0           0  
     20.294517 12.398313 17.129017            0           0           0  
     20.267064 17.526442 12.555566            0           0           0  
      7.047903 13.789117 12.310573            0           0           0  
      9.870458  4.734213 10.204827            0           0           0  
     18.994271  8.435401 13.983568            0           0           0  
     23.041029  1.316707 14.008165            0           0           0  
     12.090834  8.050811 16.866216            0           0           0  
      0.808542 16.670591 11.543859            0           0           0  
     22.545932  5.494274  9.442987            0           0           0  
      1.630051  6.090652 10.118141            0           0           0  
      4.876471 13.203936 10.628611            0           0           0  
      0.910729  7.594645 13.417724            0           0           0  
      5.610251  5.179780 15.804539            0           0           0  
      9.317020  3.528159 17.327572            0           0           0  
     10.778672 10.053079 15.973845            0           0           0  
     21.303742 13.576545 14.985875            0           0           0  
     20.347395  1.957879 11.889930            0           0           0  
     13.404764 12.092879 10.111687            0           0           0  
      3.334390  2.883551 10.107400            0           0           0  
      8.208614 13.874228 16.307024            0           0           0  
     21.327597 15.313307 12.989495            0           0           0  
      1.436002  9.728779 11.889262            0           0           0  
     16.583134 10.060305 11.289876            0           0           0  
      1.767254 14.801550 12.984509            0           0           0  
     16.398787 14.996333 11.630693            0           0           0  
     17.097484  0.889901 14.596508            0           0           0  
     21.503474  5.448717 16.993716            0           0           0  
     17.226712 15.470885 16.482483            0           0           0  
     14.634914  9.557032 13.075497            0           0           0  
     13.030101 11.410998 12.561238            0           0           0  
      9.986708  4.445161 14.923922            0           0           0  
     22.903038 13.196675 12.817872            0           0           0  
     15.319230 10.774436 17.026757            0           0           0  
      9.292369 13.522387 13.848829            0           0           0  
     14.109755  9.380738 10.368135            0           0           0  
     16.845560 11.444108 14.974672            0           0           0  
      3.432710  6.597594 16.663684            0           0           0  
      1.552517  9.940299 14.569000            0           0           0  
     19.172779 16.034632 14.425499            0           0           0  
     19.389598  6.440018 12.148683            0           0           0  
     12.361930  5.394088 14.298612            0           0           0  
     17.254717  9.052463 16.001120            0           0           0  
     13.050250  3.124665 10.616471            0           0           0  
     18.868663  4.646513 10.304202            0           0           0  
      5.558923 17.274083 13.654588            0           0           0  
     16.228468 14.081019 14.555048            0           0           0  
     21.631590 17.217321 14.859442            0           0           0  
     12.308189  5.758587 10.714525            0           0           0  
     10.976690 17.924878 14.679181            0           0           0  
     19.612071  1.722222 14.510998            0           0           0  
     12.593012  2.109629 13.071690            0           0           0  
      8.198482  3.381581 11.818906            0           0           0  
      0.275324 17.440130  9.012481            0           0           0  
     10.735749 10.898791 18.344159            0           0           0  
     15.333584 16.769347 10.194932            0           0           0  
      1.786126 12.431644 11.717949            0           0           0  
     10.608653  7.310269 14.829490            0           0           0  
     16.837858 12.692492 10.204469            0           0           0  
     10.522965 12.706074 16.098509            0           0           0  
     17.618195 12.853839 12.804426            0           0           0  
     18.226601  2.197761 16.688148            0           0           0  
     23.253845  5.581585 12.054582            0           0           0  
     12.473463  9.244431 14.294599            0           0           0  
     19.121821  9.043616 11.383552            0           0           0  
      5.517912  2.623990 16.267985            0           0           0  
      4.764978 15.053335 12.649528            0           0           0  
      5.620394 10.121779 14.055965            0           0           0  
      1.428758 11.333929 16.765133            0           0           0  
      1.078654 10.915267  9.521514            0           0           0  
     18.760617 17.744316 16.283240            0           0           0  
     12.595064  0.501913 10.874396            0           0           0  
     14.201258  5.659516 16.263166            0           0           0  
     20.169910  0.073950  9.925509            0           0           0  
      2.221997  2.700478 12.556745            0           0           0  
      4.018615  3.700357 14.263422            0           0           0  
     15.006374 12.765301 12.226974            0           0           0  
     10.225767  7.425512 10.388089            0           0           0  
     13.454372  1.049141 15.351595            0           0           0  
      3.545354 10.753287 10.456510            0           0           0  
      6.268135 10.915101 10.546514            0           0           0  
     10.307021  5.838630 12.643904            0           0           0  
      5.572114  2.872418 11.557191            0           0           0  
      1.708610  2.723258 15.123450            0           0           0  
     19.790787  9.856467 16.130645            0           0           0  
     14.542615  5.072857 11.046522            0           0           0  
     14.109215 16.155566 12.560540            0           0           0  
      0.734773  3.538893 10.457411            0           0           0  
     14.237235  3.533365 14.718902            0           0           0  
      3.109014 17.004147 12.890227            0           0           0  
      1.879169  5.081254 13.752986            0           0           0  
      8.730675  1.870581 15.300951            0           0           0  
      1.560273 12.632753 14.402680            0           0           0  
     15.603356  7.527288 11.560158            0           0           0  
     18.717452 13.225584 15.166467            0           0           0  
     16.477772 17.345801 12.640144            0           0           0  
     13.975507 11.497020 14.900563            0           0           0  
     16.922627  5.321929 12.142359            0           0           0  
     22.886823  5.691999 14.713698            0           0           0  
      3.705090 11.411018 15.334168            0           0           0  
     14.827165  5.921714 13.651392            0           0           0  
     19.188446  7.180166 16.277661            0           0           0  
     22.441557  0.493678 11.209100            0           0           0  
      6.607372  3.536677 13.943114            0           0           0  
      5.835442  8.028304 12.394729            0           0           0  
      6.376354 15.385271 15.272194            0           0           0  
      4.768135 12.423434 13.089208            0           0           0  
      3.444351  8.626975 13.241266            0           0           0  
      5.259830  7.653860 14.967989            0           0           0  
     21.337451  8.204292 12.735157            0           0           0  
     20.362867 12.767501 12.478009            0           0           0  
     17.280350  1.682278 11.969272            0           0           0  
      5.201602 16.848785 10.966984            0           0           0  
      5.886053  7.283798 17.467040            0           0           0  
     14.776922 16.017775 15.949952            0           0           0  
      9.603858 14.298787 11.383422            0           0           0  
     21.486216  3.552456 13.663341            0           0           0  
      3.103098  8.037423  8.932608            0           0           0  
      3.632208  5.500217  8.348909            0           0           0  
      8.732533  2.372198  9.354159            0           0           0  
      0.807511  5.291210 17.030041            0           0           0  
     13.407397  4.654769  8.605357            0           0           0  
      5.749896 13.954282 17.471738            0           0           0  
      4.854901 11.749902  8.343765            0           0           0  
      6.446871  7.106991  9.876299            0           0           0  
      8.553336 10.829009  9.200047            0           0           0  
      5.299869  1.018066  9.627441            0           0           0  
      5.646882  3.553180  8.853848            0           0           0  
     11.735448 16.169609 12.227676            0           0           0  
     12.892193 14.996467 14.364983            0           0           0  
     12.800277 11.899556 17.100676            0           0           0  
     11.212199  2.185962 16.032860            0           0           0  
      6.150316 12.573574 15.285104            0           0           0  
     10.388377 15.321451 15.632303            0           0           0  
     17.930947 11.185920 17.455407            0           0           0  
     19.790260 15.076193 16.744852            0           0           0  
     15.050274 13.419324 16.714678            0           0           0  
      0.191428  0.605334 16.210425            0           0           0  
      6.672595  0.015956 15.964305            0           0           0  
     11.805160 17.580220 16.890978            0           0           0  
     11.768152  8.472909 19.855654    -0.695747   -0.440431   -0.018344  
      1.948412 10.989086 10.925752            0           0           0  
      9.575770 13.862944 15.441083            0           0           0  
     19.706781  7.999677 12.577086            0           0           0  
      0.400087 17.948760 10.581598            0           0           0  
      0.344151  5.149879 10.513585            0           0           0  
      0.223234  2.083244 15.390645            0           0           0  
     14.306773 11.956991 16.442781            0           0           0  
      5.009356  8.620477 13.704967            0           0           0  
     21.422789 13.691699 13.340993            0           0           0  
     12.187418  2.001593 11.451954            0           0           0  
      9.811841  3.045861 15.842961            0           0           0  
      1.953732  2.521970 10.941016            0           0           0  
     16.432339  0.812670 13.100884            0           0           0  
     15.569900 16.273550 11.760839            0           0           0  
     15.219653  9.133594 11.563904            0           0           0  
      4.646221 16.535307 12.473632            0           0           0  
      5.014535  6.640045 16.228936            0           0           0  
     15.796436 14.763481 15.987454            0           0           0  
      5.072518 11.622828 14.476150            0           0           0  
      8.633831 13.321424 12.345092            0           0           0  
     18.684764 16.110776 16.014659            0           0           0  
     20.599340 16.532998 13.763150            0           0           0  
     13.508286 10.429038 13.771046            0           0           0  
     13.810449  2.087740 14.120435            0           0           0  
     20.089755  2.756480 13.311996            0           0           0  
     19.567476 10.940836 17.365259            0           0           0  
      3.130992  6.529424  9.593928            0           0           0  
     18.510264  5.072845 11.879025            0           0           0  
      9.345229  3.216426 10.645899            0           0           0  
     20.045631 13.595092 16.036435            0           0           0  
      6.626597 16.926456 14.770791            0           0           0  
      0.540209  5.988118 13.502050            0           0           0  
     13.451179 12.603141 11.709436            0           0           0  
      5.390239 13.638052 12.150463            0           0           0  
     13.912340  5.136622 14.741777            0           0           0  
     22.828854  4.930232 16.202850            0           0           0  
     20.810449  0.460442 11.403929            0           0           0  
      2.453940  3.542966 13.917675            0           0           0  
      1.127152 13.283539 12.974724            0           0           0  
      5.431601  3.729312 15.081262            0           0           0  
     13.143284  4.671388 10.248641            0           0           0  
     11.235914 11.451109 16.840797            0           0           0  
      6.586334 13.955497 16.065700            0           0           0  
      4.881274 11.659201  9.995089            0           0           0  
     17.337005 12.887381 14.406406            0           0           0  
     23.101910 17.951187 14.794661            0           0           0  
     16.460588 13.352056 11.674381            0           0           0  
     18.447683  1.082894 15.506420            0           0           0  
     10.682899  5.951949 11.003036            0           0           0  
     10.544997 16.936247 15.975125            0           0           0  
     11.920994  0.719163 15.754243            0           0           0  
      5.718142  6.712221 11.316475            0           0           0  
     15.416931  5.980046 12.106868            0           0           0  
     10.787254  5.730759 14.207294            0           0           0  
      7.896615 10.690489 10.728695            0           0           0  
     18.809607  8.634499 15.587862            0           0           0  
      1.620291 16.288440 12.917606            0           0           0  
      4.961031  2.617691 10.043534            0           0           0  
      1.831532  8.951619 13.298869            0           0           0  
     13.053440 15.445457 12.762347            0           0           0  
     16.824891 10.599854 16.388485            0           0           0  
      6.710663  3.807303 12.342443            0           0           0  
      2.061229 11.336083 15.259053            0           0           0  
      8.285564  0.318829 15.550971            0           0           0  
     11.463607  8.610647 15.406904            0           0           0  
     11.347130  9.077392 18.315985    -0.502767   -0.244414   -0.095428  
 
 Finite differences POTIM=  1.500000000000000E-002
  LATTYP: Found a simple orthorhombic cell.
 ALAT       =    18.1212369514
 B/A-ratio  =     1.2919258579
 C/A-ratio  =     1.4835282260
  
  Lattice vectors:
  
 A1 = (   0.0000000000, -18.1212369514,   0.0000000000)
 A2 = ( -23.4112945954,   0.0000000000,   0.0000000000)
 A3 = (   0.0000000000,   0.0000000000, -26.8833665073)


Analysis of symmetry for initial positions (statically):
=====================================================================
 Subroutine PRICEL returns:
 Original cell was already a primitive cell.
 

 Routine SETGRP: Setting up the symmetry group for a 
 simple orthorhombic supercell.


 Subroutine GETGRP returns: Found  1 space group operations
 (whereof  1 operations were pure point group operations)
 out of a pool of  8 trial point group operations.


The static configuration has the point symmetry C_1 .


Analysis of symmetry for dynamics (positions and initial velocities):
=====================================================================
 Subroutine PRICEL returns:
 Original cell was already a primitive cell.
 

 Routine SETGRP: Setting up the symmetry group for a 
 simple orthorhombic supercell.


 Subroutine GETGRP returns: Found  1 space group operations
 (whereof  1 operations were pure point group operations)
 out of a pool of  8 trial point group operations.


The dynamic configuration has the point symmetry C_1 .


Analysis of constrained symmetry for selective dynamics:
=====================================================================
 Subroutine PRICEL returns:
 Original cell was already a primitive cell.
 

 Routine SETGRP: Setting up the symmetry group for a 
 simple orthorhombic supercell.


 Subroutine GETGRP returns: Found  1 space group operations
 (whereof  1 operations were pure point group operations)
 out of a pool of  8 trial point group operations.


The constrained configuration has the point symmetry C_1 .


 Subroutine INISYM returns: Found  1 space group operations
 (whereof  1 operations are pure point group operations),
 and found     1 'primitive' translations

 
 KPOINTS: KPOINTS created by Atomic Simulation Env

Automatic generation of k-mesh.
Space group operators:
 irot       det(A)        alpha          n_x          n_y          n_z        tau_x        tau_y        tau_z
    1     1.000000     0.000001     1.000000     0.000000     0.000000     0.000000     0.000000     0.000000
 
 Subroutine IBZKPT returns following result:
 ===========================================
 
 Found      5 irreducible k-points:
 
 Following reciprocal coordinates:
            Coordinates               Weight
  0.000000  0.000000  0.000000      1.000000
  0.333333  0.000000  0.000000      2.000000
  0.000000  0.333333  0.000000      2.000000
  0.333333  0.333333  0.000000      2.000000
 -0.333333  0.333333  0.000000      2.000000
 
 Following cartesian coordinates:
            Coordinates               Weight
  0.000000  0.000000  0.000000      1.000000
  0.014238  0.000000  0.000000      2.000000
  0.000000  0.018395  0.000000      2.000000
  0.014238  0.018395  0.000000      2.000000
 -0.014238  0.018395  0.000000      2.000000
 
 writing wavefunctions
     LOOP+:  cpu time  917.7516: real time  978.9098
    4ORBIT:  cpu time    0.0000: real time    0.0000

 total amount of memory used by VASP MPI-rank0   298737. kBytes
=======================================================================

   base      :      30000. kBytes
   nonlr-proj:      27086. kBytes
   fftplans  :      11832. kBytes
   grid      :      85689. kBytes
   one-center:       4105. kBytes
   wavefun   :     140025. kBytes
 
  
  
 General timing and accounting informations for this job:
 ========================================================
  
                  Total CPU time used (sec):    10196.309
                            User time (sec):     9900.087
                          System time (sec):      296.222
                         Elapsed time (sec):    10739.022
  
                   Maximum memory used (kb):     1153768.
                   Average memory used (kb):           0.
  
                          Minor page faults:       146720
                          Major page faults:           10
                 Voluntary context switches:     12412103
