ESCALE ; pCOHP file generated by LOBSTER. Energy is shifted such that the Fermi level lies at 0 eV.
        75          1        801  -2.35321e+01   1.65179e+01  -3.50711e+00 
Average
No.1:O204->W270(1.7131523302553981)
No.1:O204[2s]->W270[6s](1.7131523302553981)
No.1:O204[2s]->W270[5d_xy](1.7131523302553981)
No.1:O204[2s]->W270[5d_yz](1.7131523302553981)
No.1:O204[2s]->W270[5d_z^2](1.7131523302553981)
No.1:O204[2s]->W270[5d_xz](1.7131523302553981)
No.1:O204[2s]->W270[5d_x^2-y^2](1.7131523302553981)
No.1:O204[2p_y]->W270[6s](1.7131523302553981)
No.1:O204[2p_y]->W270[5d_xy](1.7131523302553981)
No.1:O204[2p_y]->W270[5d_yz](1.7131523302553981)
No.1:O204[2p_y]->W270[5d_z^2](1.7131523302553981)
No.1:O204[2p_y]->W270[5d_xz](1.7131523302553981)
No.1:O204[2p_y]->W270[5d_x^2-y^2](1.7131523302553981)
No.1:O204[2p_z]->W270[6s](1.7131523302553981)
No.1:O204[2p_z]->W270[5d_xy](1.7131523302553981)
No.1:O204[2p_z]->W270[5d_yz](1.7131523302553981)
No.1:O204[2p_z]->W270[5d_z^2](1.7131523302553981)
No.1:O204[2p_z]->W270[5d_xz](1.7131523302553981)
No.1:O204[2p_z]->W270[5d_x^2-y^2](1.7131523302553981)
No.1:O204[2p_x]->W270[6s](1.7131523302553981)
No.1:O204[2p_x]->W270[5d_xy](1.7131523302553981)
No.1:O204[2p_x]->W270[5d_yz](1.7131523302553981)
No.1:O204[2p_x]->W270[5d_z^2](1.7131523302553981)
No.1:O204[2p_x]->W270[5d_xz](1.7131523302553981)
No.1:O204[2p_x]->W270[5d_x^2-y^2](1.7131523302553981)
No.2:H49->W270(1.7100749933868786)
No.2:H49[1s]->W270[6s](1.7100749933868786)
No.2:H49[1s]->W270[5d_xy](1.7100749933868786)
No.2:H49[1s]->W270[5d_yz](1.7100749933868786)
No.2:H49[1s]->W270[5d_z^2](1.7100749933868786)
No.2:H49[1s]->W270[5d_xz](1.7100749933868786)
No.2:H49[1s]->W270[5d_x^2-y^2](1.7100749933868786)
No.3:C2->W270(2.0978951434873729)
No.3:C2[2s]->W270[6s](2.0978951434873729)
No.3:C2[2s]->W270[5d_xy](2.0978951434873729)
No.3:C2[2s]->W270[5d_yz](2.0978951434873729)
No.3:C2[2s]->W270[5d_z^2](2.0978951434873729)
No.3:C2[2s]->W270[5d_xz](2.0978951434873729)
No.3:C2[2s]->W270[5d_x^2-y^2](2.0978951434873729)
No.3:C2[2p_y]->W270[6s](2.0978951434873729)
No.3:C2[2p_y]->W270[5d_xy](2.0978951434873729)
No.3:C2[2p_y]->W270[5d_yz](2.0978951434873729)
No.3:C2[2p_y]->W270[5d_z^2](2.0978951434873729)
No.3:C2[2p_y]->W270[5d_xz](2.0978951434873729)
No.3:C2[2p_y]->W270[5d_x^2-y^2](2.0978951434873729)
No.3:C2[2p_z]->W270[6s](2.0978951434873729)
No.3:C2[2p_z]->W270[5d_xy](2.0978951434873729)
No.3:C2[2p_z]->W270[5d_yz](2.0978951434873729)
No.3:C2[2p_z]->W270[5d_z^2](2.0978951434873729)
No.3:C2[2p_z]->W270[5d_xz](2.0978951434873729)
No.3:C2[2p_z]->W270[5d_x^2-y^2](2.0978951434873729)
No.3:C2[2p_x]->W270[6s](2.0978951434873729)
No.3:C2[2p_x]->W270[5d_xy](2.0978951434873729)
No.3:C2[2p_x]->W270[5d_yz](2.0978951434873729)
No.3:C2[2p_x]->W270[5d_z^2](2.0978951434873729)
No.3:C2[2p_x]->W270[5d_xz](2.0978951434873729)
No.3:C2[2p_x]->W270[5d_x^2-y^2](2.0978951434873729)
No.4:C1->C2(1.3514030908845605)
No.4:C1[2s]->C2[2s](1.3514030908845605)
No.4:C1[2s]->C2[2p_y](1.3514030908845605)
No.4:C1[2s]->C2[2p_z](1.3514030908845605)
No.4:C1[2s]->C2[2p_x](1.3514030908845605)
No.4:C1[2p_y]->C2[2s](1.3514030908845605)
No.4:C1[2p_y]->C2[2p_y](1.3514030908845605)
No.4:C1[2p_y]->C2[2p_z](1.3514030908845605)
No.4:C1[2p_y]->C2[2p_x](1.3514030908845605)
No.4:C1[2p_z]->C2[2s](1.3514030908845605)
No.4:C1[2p_z]->C2[2p_y](1.3514030908845605)
No.4:C1[2p_z]->C2[2p_z](1.3514030908845605)
No.4:C1[2p_z]->C2[2p_x](1.3514030908845605)
No.4:C1[2p_x]->C2[2s](1.3514030908845605)
No.4:C1[2p_x]->C2[2p_y](1.3514030908845605)
No.4:C1[2p_x]->C2[2p_z](1.3514030908845605)
No.4:C1[2p_x]->C2[2p_x](1.3514030908845605)
-20.02503   0.00000  -0.00646   0.00000  -0.02298   0.00000  -0.02218   0.00000   0.00428   0.00000  -0.00291   0.00000   0.00011   0.00000   0.00064   0.00000  -0.00119   0.00000  -0.00111   0.00000   0.00060   0.00000  -0.00045   0.00000  -0.00014   0.00000   0.00021   0.00000   0.00038   0.00000  -0.00096   0.00000   0.00092   0.00000  -0.00013   0.00000   0.00046   0.00000   0.00003   0.00000  -0.00024   0.00000  -0.00036   0.00000   0.00000   0.00000  -0.00034   0.00000  -0.00011   0.00000   0.00000   0.00000  -0.00050   0.00000  -0.00101   0.00000  -0.00241   0.00000  -0.00026   0.00000   0.00013   0.00000   0.00132   0.00000  -0.00002   0.00000   0.00023   0.00000  -0.00190   0.00000  -0.00112   0.00000   0.00028   0.00000   0.00038   0.00000   0.00006   0.00000  -0.00011   0.00000  -0.00001   0.00000   0.00033   0.00000  -0.00010   0.00000  -0.00010   0.00000  -0.00016   0.00000   0.00013   0.00000  -0.00014   0.00000  -0.00192   0.00000   0.00088   0.00000   0.00058   0.00000   0.00001   0.00000  -0.00017   0.00000   0.00004   0.00000  -0.00085   0.00000   0.00008   0.00000   0.00030   0.00000  -0.00010   0.00000  -0.00002   0.00000  -0.00019   0.00000   0.00007   0.00000   0.00001   0.00000  -0.00001   0.00000  -0.00003   0.00000   0.00000   0.00000  -0.00000   0.00000   0.00000   0.00000   0.00002   0.00000  -0.00000   0.00000  -0.00006   0.00000   0.00003   0.00000   0.00010   0.00000   0.00000   0.00000  -0.00000   0.00000  -0.00000   0.00000   0.00000   0.00000   0.00001
-19.97497  -0.00397  -0.00666  -0.01577  -0.02377  -0.01592  -0.02298   0.00409   0.00448  -0.00259  -0.00304   0.00006   0.00011   0.00050   0.00067  -0.00112  -0.00125  -0.00057  -0.00114   0.00043   0.00062  -0.00029  -0.00047  -0.00005  -0.00014   0.00012   0.00022   0.00026   0.00040  -0.00047  -0.00099   0.00059   0.00095  -0.00006  -0.00014   0.00027   0.00048   0.00001   0.00003  -0.00015  -0.00025  -0.00022  -0.00037   0.00000   0.00000  -0.00020  -0.00035  -0.00007  -0.00011   0.00000   0.00000  -0.00038  -0.00052   0.00018  -0.00100  -0.00152  -0.00248   0.00005  -0.00026   0.00020   0.00014   0.00146   0.00139  -0.00003  -0.00002   0.00003   0.00024  -0.00033  -0.00192  -0.00068  -0.00115   0.00022   0.00029   0.00026   0.00040   0.00004   0.00006  -0.00007  -0.00011  -0.00001  -0.00001   0.00004   0.00033  -0.00003  -0.00011  -0.00004  -0.00011  -0.00011  -0.00016   0.00005   0.00013  -0.00004  -0.00014  -0.00062  -0.00195   0.00044   0.00090   0.00029   0.00060  -0.00003   0.00001  -0.00008  -0.00017   0.00002   0.00004  -0.00035  -0.00087   0.00006   0.00009   0.00036   0.00032   0.00010  -0.00009  -0.00002  -0.00002  -0.00013  -0.00019   0.00003   0.00007   0.00001   0.00001  -0.00000  -0.00001   0.00000  -0.00003   0.00000   0.00000  -0.00000  -0.00000   0.00000   0.00000   0.00001   0.00002  -0.00000  -0.00000  -0.00003  -0.00006   0.00001   0.00003   0.00004   0.00011   0.00000   0.00001  -0.00000  -0.00000  -0.00000  -0.00000   0.00000   0.00000  -0.00000   0.00001
-19.92491  -0.00514  -0.00691  -0.02039  -0.02480  -0.01995  -0.02398   0.00563   0.00476  -0.00428  -0.00326   0.00002   0.00012   0.00086   0.00071  -0.00153  -0.00133  -0.00071  -0.00117   0.00057   0.00065  -0.00045  -0.00049  -0.00000  -0.00014   0.00019   0.00023   0.00035   0.00041  -0.00056  -0.00101   0.00078   0.00099  -0.00012  -0.00014   0.00018   0.00049   0.00002   0.00003  -0.00020  -0.00025  -0.00026  -0.00038   0.00000   0.00000  -0.00038  -0.00037  -0.00005  -0.00011   0.00000   0.00000  -0.00051  -0.00054   0.00018  -0.00099  -0.00139  -0.00255   0.00006  -0.00026   0.00018   0.00015   0.00133   0.00146  -0.00003  -0.00002   0.00002   0.00024  -0.00037  -0.00194  -0.00090  -0.00120   0.00029   0.00031   0.00031   0.00041   0.00005   0.00007  -0.00009  -0.00012  -0.00001  -0.00001   0.00006   0.00033  -0.00004  -0.00011  -0.00004  -0.00011  -0.00010  -0.00017   0.00005   0.00013  -0.00005  -0.00014  -0.00075  -0.00199   0.00055   0.00093   0.00036   0.00061  -0.00004   0.00001  -0.00010  -0.00018   0.00003   0.00004  -0.00045  -0.00089   0.00008   0.00009   0.00047   0.00034   0.00014  -0.00009  -0.00003  -0.00002  -0.00017  -0.00020   0.00003   0.00007   0.00001   0.00002  -0.00000  -0.00001   0.00000  -0.00003   0.00000   0.00000  -0.00000  -0.00000   0.00000   0.00000   0.00001   0.00002  -0.00000  -0.00000  -0.00004  -0.00007   0.00001   0.00003   0.00005   0.00011   0.00001   0.00001  -0.00000  -0.00000  -0.00000  -0.00000   0.00000   0.00000  -0.00001   0.00000
-19.87484  -0.00688  -0.00726  -0.02739  -0.02617  -0.02595  -0.02528   0.00805   0.00517  -0.00707  -0.00361  -0.00007   0.00011   0.00147   0.00078  -0.00215  -0.00143  -0.00091  -0.00122   0.00080   0.00069  -0.00071  -0.00053   0.00009  -0.00014   0.00031   0.00024   0.00049   0.00044  -0.00070  -0.00105   0.00109   0.00104  -0.00021  -0.00015   0.00002   0.00049   0.00004   0.00003  -0.00027  -0.00027  -0.00033  -0.00040   0.00000   0.00000  -0.00067  -0.00040   0.00000  -0.00011   0.00001   0.00000  -0.00070  -0.00058   0.00023  -0.00098  -0.00120  -0.00261   0.00008  -0.00025   0.00017   0.00015   0.00121   0.00152  -0.00003  -0.00002  -0.00000   0.00024  -0.00040  -0.00196  -0.00123  -0.00126   0.00042   0.00033   0.00044   0.00044   0.00006   0.00007  -0.00012  -0.00012  -0.00002  -0.00001   0.00009   0.00034  -0.00005  -0.00011  -0.00005  -0.00011  -0.00010  -0.00017   0.00006   0.00014  -0.00007  -0.00015  -0.00096  -0.00204   0.00074   0.00096   0.00050   0.00064  -0.00006   0.00001  -0.00014  -0.00019   0.00003   0.00005  -0.00061  -0.00092   0.00011   0.00010   0.00064   0.00038   0.00019  -0.00008  -0.00004  -0.00002  -0.00023  -0.00021   0.00003   0.00007   0.00001   0.00002  -0.00000  -0.00001   0.00000  -0.00003   0.00000   0.00000  -0.00001  -0.00000   0.00000   0.00000   0.00001   0.00002  -0.00000  -0.00000  -0.00005  -0.00007   0.00001   0.00003   0.00006   0.00011   0.00001   0.00001  -0.00000  -0.00000  -0.00000  -0.00000   0.00000   0.00000  -0.00001   0.00000
-19.82478  -0.00927  -0.00772  -0.03694  -0.02802  -0.03412  -0.02699   0.01142   0.00574  -0.01099  -0.00416  -0.00018   0.00010   0.00233   0.00090  -0.00302  -0.00159  -0.00118  -0.00128   0.00112   0.00075  -0.00108  -0.00058   0.00021  -0.00013   0.00048   0.00027   0.00067   0.00047  -0.00088  -0.00109   0.00152   0.00112  -0.00034  -0.00017  -0.00020   0.00048   0.00006   0.00003  -0.00037  -0.00029  -0.00042  -0.00042   0.00001   0.00000  -0.00108  -0.00045   0.00007  -0.00011   0.00001   0.00000  -0.00097  -0.00063   0.00028  -0.00096  -0.00100  -0.00266   0.00010  -0.00025   0.00015   0.00016   0.00109   0.00157  -0.00003  -0.00002  -0.00003   0.00024  -0.00043  -0.00198  -0.00169  -0.00134   0.00060   0.00036   0.00062   0.00047   0.00010   0.00007  -0.00018  -0.00013  -0.00002  -0.00001   0.00012   0.00034  -0.00007  -0.00011  -0.00006  -0.00011  -0.00011  -0.00018   0.00007   0.00014  -0.00009  -0.00015  -0.00125  -0.00210   0.00101   0.00101   0.00071   0.00068  -0.00009   0.00000  -0.00020  -0.00020   0.00005   0.00005  -0.00086  -0.00096   0.00015   0.00010   0.00089   0.00042   0.00026  -0.00006  -0.00005  -0.00002  -0.00033  -0.00023   0.00003   0.00008   0.00000   0.00002  -0.00000  -0.00001   0.00000  -0.00003   0.00000   0.00000  -0.00001  -0.00000   0.00000   0.00000   0.00002   0.00002  -0.00000  -0.00000  -0.00008  -0.00007   0.00001   0.00003   0.00008   0.00012   0.00001   0.00001  -0.00000  -0.00000  -0.00000  -0.00000   0.00001   0.00000  -0.00002   0.00000
-19.77472  -0.01222  -0.00833  -0.04869  -0.03045  -0.04426  -0.02920   0.01563   0.00652  -0.01579  -0.00495  -0.00032   0.00009   0.00337   0.00107  -0.00408  -0.00179  -0.00153  -0.00136   0.00153   0.00082  -0.00153  -0.00066   0.00036  -0.00011   0.00069   0.00030   0.00090   0.00052  -0.00112  -0.00115   0.00205   0.00122  -0.00050  -0.00020  -0.00046   0.00045   0.00009   0.00004  -0.00049  -0.00031  -0.00053  -0.00045   0.00001   0.00000  -0.00158  -0.00053   0.00015  -0.00010   0.00001   0.00000  -0.00130  -0.00069   0.00029  -0.00095  -0.00086  -0.00271   0.00009  -0.00024   0.00014   0.00017   0.00099   0.00162  -0.00002  -0.00002  -0.00003   0.00023  -0.00050  -0.00201  -0.00228  -0.00146   0.00082   0.00040   0.00085   0.00051   0.00013   0.00008  -0.00024  -0.00014  -0.00003  -0.00002   0.00015   0.00035  -0.00009  -0.00012  -0.00007  -0.00012  -0.00012  -0.00019   0.00008   0.00014  -0.00011  -0.00016  -0.00161  -0.00218   0.00134   0.00108   0.00096   0.00072  -0.00014  -0.00000  -0.00028  -0.00021   0.00006   0.00005  -0.00117  -0.00102   0.00021   0.00011   0.00119   0.00048   0.00034  -0.00005  -0.00007  -0.00003  -0.00045  -0.00025   0.00002   0.00008   0.00000   0.00002  -0.00000  -0.00001   0.00001  -0.00003   0.00000   0.00000  -0.00001  -0.00000  -0.00000   0.00000   0.00003   0.00002  -0.00000  -0.00000  -0.00010  -0.00008   0.00001   0.00003   0.00010   0.00012   0.00001   0.00001  -0.00000  -0.00000  -0.00000  -0.00000   0.00001   0.00000  -0.00002   0.00000
-19.72466  -0.01541  -0.00910  -0.06128  -0.03352  -0.05531  -0.03197   0.02016   0.00753  -0.02079  -0.00599  -0.00046   0.00006   0.00446   0.00129  -0.00521  -0.00205  -0.00190  -0.00145   0.00196   0.00092  -0.00200  -0.00076   0.00051  -0.00008   0.00091   0.00035   0.00115   0.00057  -0.00137  -0.00122   0.00262   0.00135  -0.00067  -0.00023  -0.00072   0.00042   0.00012   0.00004  -0.00062  -0.00034  -0.00066  -0.00048   0.00001   0.00001  -0.00209  -0.00064   0.00023  -0.00009   0.00002   0.00001  -0.00164  -0.00077   0.00023  -0.00094  -0.00084  -0.00275   0.00005  -0.00024   0.00013   0.00018   0.00093   0.00167  -0.00002  -0.00003  -0.00002   0.00023  -0.00060  -0.00204  -0.00291  -0.00160   0.00106   0.00045   0.00109   0.00056   0.00017   0.00009  -0.00031  -0.00016  -0.00004  -0.00002   0.00019   0.00036  -0.00010  -0.00012  -0.00008  -0.00012  -0.00014  -0.00019   0.00010   0.00015  -0.00013  -0.00016  -0.00199  -0.00228   0.00170   0.00117   0.00121   0.00078  -0.00018  -0.00001  -0.00035  -0.00023   0.00008   0.00006  -0.00150  -0.00110   0.00027   0.00013   0.00150   0.00056   0.00043  -0.00003  -0.00008  -0.00003  -0.00057  -0.00028   0.00002   0.00008  -0.00000   0.00002  -0.00000  -0.00001   0.00001  -0.00003   0.00000   0.00000  -0.00002  -0.00000  -0.00000   0.00000   0.00003   0.00002  -0.00000  -0.00000  -0.00013  -0.00008   0.00001   0.00003   0.00013   0.00013   0.00002   0.00001  -0.00001  -0.00000  -0.00000  -0.00000   0.00001   0.00001  -0.00003   0.00000
-19.67459  -0.01825  -0.01002  -0.07240  -0.03715  -0.06530  -0.03524   0.02423   0.00874  -0.02506  -0.00725  -0.00056   0.00004   0.00539   0.00156  -0.00620  -0.00236  -0.00223  -0.00156   0.00234   0.00104  -0.00239  -0.00088   0.00062  -0.00005   0.00109   0.00040   0.00136   0.00064  -0.00160  -0.00130   0.00313   0.00151  -0.00081  -0.00027  -0.00090   0.00037   0.00014   0.00005  -0.00073  -0.00038  -0.00077  -0.00052   0.00001   0.00001  -0.00252  -0.00076   0.00028  -0.00008   0.00002   0.00001  -0.00194  -0.00087   0.00011  -0.00093  -0.00098  -0.00280  -0.00000  -0.00024   0.00012   0.00018   0.00097   0.00172  -0.00002  -0.00003   0.00003   0.00023  -0.00073  -0.00207  -0.00349  -0.00178   0.00128   0.00051   0.00129   0.00063   0.00020   0.00010  -0.00037  -0.00018  -0.00005  -0.00002   0.00021   0.00037  -0.00012  -0.00013  -0.00009  -0.00013  -0.00015  -0.00020   0.00011   0.00015  -0.00014  -0.00017  -0.00234  -0.00239   0.00202   0.00127   0.00142   0.00085  -0.00021  -0.00002  -0.00041  -0.00025   0.00009   0.00006  -0.00180  -0.00119   0.00032   0.00014   0.00179   0.00065   0.00050  -0.00000  -0.00010  -0.00004  -0.00069  -0.00031   0.00002   0.00008  -0.00001   0.00002  -0.00000  -0.00001   0.00002  -0.00003   0.00000   0.00000  -0.00002  -0.00001  -0.00000   0.00000   0.00004   0.00002  -0.00000  -0.00000  -0.00016  -0.00009   0.00001   0.00003   0.00015   0.00014   0.00002   0.00001  -0.00001  -0.00000  -0.00000  -0.00000   0.00001   0.00001  -0.00004  -0.00000
-19.62453  -0.02006  -0.01102  -0.07943  -0.04112  -0.07192  -0.03884   0.02692   0.01009  -0.02762  -0.00863  -0.00061   0.00001   0.00595   0.00186  -0.00683  -0.00270  -0.00245  -0.00169   0.00258   0.00117  -0.00262  -0.00101   0.00067  -0.00002   0.00119   0.00046   0.00149   0.00072  -0.00175  -0.00139   0.00346   0.00168  -0.00088  -0.00031  -0.00099   0.00032   0.00016   0.00006  -0.00080  -0.00042  -0.00084  -0.00056   0.00002   0.00001  -0.00276  -0.00090   0.00031  -0.00006   0.00002   0.00001  -0.00213  -0.00098   0.00003  -0.00093  -0.00125  -0.00286  -0.00004  -0.00024   0.00014   0.00019   0.00114   0.00177  -0.00003  -0.00003   0.00008   0.00024  -0.00086  -0.00211  -0.00388  -0.00197   0.00143   0.00059   0.00141   0.00070   0.00021   0.00011  -0.00041  -0.00020  -0.00005  -0.00002   0.00020   0.00038  -0.00012  -0.00014  -0.00009  -0.00013  -0.00016  -0.00021   0.00012   0.00016  -0.00014  -0.00018  -0.00256  -0.00252   0.00221   0.00138   0.00153   0.00093  -0.00022  -0.00003  -0.00044  -0.00027   0.00010   0.00006  -0.00200  -0.00129   0.00036   0.00016   0.00197   0.00074   0.00054   0.00003  -0.00011  -0.00004  -0.00076  -0.00035   0.00002   0.00008  -0.00001   0.00001  -0.00000  -0.00001   0.00003  -0.00003   0.00000   0.00000  -0.00002  -0.00001   0.00000   0.00000   0.00004   0.00003  -0.00000  -0.00000  -0.00018  -0.00010   0.00001   0.00003   0.00017   0.00014   0.00002   0.00001  -0.00001  -0.00000  -0.00000  -0.00000   0.00001   0.00001  -0.00004  -0.00000
-19.57447  -0.02033  -0.01204  -0.08050  -0.04515  -0.07342  -0.04252   0.02760   0.01147  -0.02786  -0.01002  -0.00060  -0.00002   0.00601   0.00216  -0.00693  -0.00305  -0.00249  -0.00181   0.00263   0.00130  -0.00262  -0.00114   0.00065   0.00001   0.00119   0.00052   0.00151   0.00079  -0.00178  -0.00147   0.00351   0.00186  -0.00088  -0.00036  -0.00094   0.00028   0.00016   0.00006  -0.00081  -0.00046  -0.00085  -0.00061   0.00002   0.00001  -0.00275  -0.00104   0.00029  -0.00005   0.00002   0.00001  -0.00215  -0.00108   0.00008  -0.00093  -0.00162  -0.00294  -0.00004  -0.00025   0.00018   0.00020   0.00148   0.00185  -0.00004  -0.00003   0.00012   0.00024  -0.00094  -0.00216  -0.00398  -0.00217   0.00146   0.00066   0.00142   0.00077   0.00020   0.00012  -0.00041  -0.00022  -0.00005  -0.00002   0.00018   0.00039  -0.00011  -0.00014  -0.00009  -0.00014  -0.00018  -0.00022   0.00012   0.00017  -0.00013  -0.00018  -0.00259  -0.00265   0.00223   0.00149   0.00151   0.00101  -0.00020  -0.00004  -0.00044  -0.00029   0.00010   0.00007  -0.00204  -0.00139   0.00038   0.00018   0.00202   0.00085   0.00055   0.00005  -0.00011  -0.00005  -0.00078  -0.00039   0.00003   0.00008  -0.00002   0.00001  -0.00000  -0.00001   0.00004  -0.00003   0.00000   0.00000  -0.00002  -0.00001   0.00001   0.00000   0.00004   0.00003  -0.00000  -0.00000  -0.00018  -0.00011   0.00001   0.00003   0.00018   0.00015   0.00002   0.00001  -0.00001  -0.00000  -0.00000  -0.00000   0.00001   0.00001  -0.00004  -0.00001
-19.52441  -0.01900  -0.01299  -0.07541  -0.04893  -0.06947  -0.04599   0.02618   0.01278  -0.02584  -0.01132  -0.00053  -0.00005   0.00558   0.00244  -0.00650  -0.00338  -0.00235  -0.00193   0.00248   0.00142  -0.00241  -0.00126   0.00056   0.00004   0.00109   0.00057   0.00140   0.00086  -0.00168  -0.00156   0.00330   0.00202  -0.00080  -0.00040  -0.00079   0.00024   0.00014   0.00007  -0.00076  -0.00050  -0.00081  -0.00065   0.00002   0.00001  -0.00250  -0.00116   0.00024  -0.00004   0.00002   0.00001  -0.00200  -0.00118   0.00033  -0.00091  -0.00200  -0.00304   0.00004  -0.00024   0.00025   0.00021   0.00198   0.00195  -0.00006  -0.00003   0.00012   0.00025  -0.00096  -0.00221  -0.00375  -0.00236   0.00138   0.00073   0.00133   0.00084   0.00018   0.00013  -0.00038  -0.00024  -0.00005  -0.00003   0.00012   0.00039  -0.00009  -0.00015  -0.00009  -0.00014  -0.00021  -0.00023   0.00013   0.00017  -0.00011  -0.00019  -0.00243  -0.00277   0.00207   0.00159   0.00137   0.00108  -0.00017  -0.00005  -0.00039  -0.00031   0.00009   0.00007  -0.00193  -0.00149   0.00036   0.00020   0.00194   0.00094   0.00053   0.00008  -0.00011  -0.00005  -0.00074  -0.00043   0.00004   0.00008  -0.00002   0.00001  -0.00001  -0.00001   0.00004  -0.00002   0.00000   0.00000  -0.00002  -0.00001   0.00001   0.00000   0.00004   0.00003  -0.00000  -0.00000  -0.00018  -0.00012   0.00001   0.00003   0.00017   0.00016   0.00002   0.00001  -0.00001  -0.00000  -0.00000  -0.00000   0.00001   0.00001  -0.00004  -0.00001
-19.47434  -0.01648  -0.01382  -0.06587  -0.05222  -0.06149  -0.04907   0.02328   0.01395  -0.02231  -0.01243  -0.00043  -0.00007   0.00482   0.00268  -0.00570  -0.00366  -0.00206  -0.00203   0.00218   0.00153  -0.00205  -0.00136   0.00044   0.00006   0.00093   0.00062   0.00122   0.00092  -0.00148  -0.00163   0.00288   0.00217  -0.00067  -0.00043  -0.00057   0.00021   0.00012   0.00008  -0.00065  -0.00053  -0.00071  -0.00068   0.00001   0.00001  -0.00208  -0.00127   0.00017  -0.00003   0.00002   0.00001  -0.00173  -0.00127   0.00079  -0.00087  -0.00234  -0.00316   0.00018  -0.00023   0.00034   0.00023   0.00259   0.00208  -0.00008  -0.00004   0.00009   0.00025  -0.00089  -0.00225  -0.00326  -0.00252   0.00120   0.00079   0.00116   0.00089   0.00016   0.00014  -0.00033  -0.00025  -0.00004  -0.00003   0.00005   0.00040  -0.00006  -0.00015  -0.00009  -0.00014  -0.00027  -0.00024   0.00013   0.00018  -0.00007  -0.00019  -0.00211  -0.00288   0.00177   0.00168   0.00114   0.00113  -0.00013  -0.00006  -0.00032  -0.00033   0.00008   0.00008  -0.00171  -0.00157   0.00033   0.00021   0.00175   0.00103   0.00048   0.00010  -0.00010  -0.00006  -0.00066  -0.00046   0.00006   0.00009  -0.00002   0.00001  -0.00001  -0.00001   0.00005  -0.00002   0.00000   0.00000  -0.00002  -0.00001   0.00002   0.00001   0.00004   0.00003  -0.00000  -0.00000  -0.00016  -0.00013   0.00001   0.00003   0.00016   0.00017   0.00002   0.00001  -0.00001  -0.00000  -0.00000  -0.00000   0.00001   0.00001  -0.00003  -0.00001
-19.42428  -0.01362  -0.01450  -0.05529  -0.05499  -0.05231  -0.05169   0.02012   0.01496  -0.01877  -0.01337  -0.00034  -0.00009   0.00406   0.00288  -0.00484  -0.00390  -0.00173  -0.00212   0.00185   0.00163  -0.00169  -0.00145   0.00034   0.00008   0.00076   0.00066   0.00102   0.00097  -0.00124  -0.00170   0.00241   0.00229  -0.00054  -0.00046  -0.00038   0.00019   0.00009   0.00008  -0.00054  -0.00056  -0.00060  -0.00071   0.00001   0.00001  -0.00165  -0.00135   0.00011  -0.00002   0.00001   0.00001  -0.00143  -0.00134   0.00142  -0.00080  -0.00257  -0.00329   0.00038  -0.00022   0.00044   0.00025   0.00326   0.00224  -0.00010  -0.00004   0.00001   0.00026  -0.00071  -0.00229  -0.00264  -0.00265   0.00100   0.00084   0.00099   0.00094   0.00015   0.00015  -0.00029  -0.00027  -0.00003  -0.00003  -0.00005   0.00039  -0.00002  -0.00015  -0.00010  -0.00015  -0.00035  -0.00026   0.00015   0.00019  -0.00003  -0.00019  -0.00173  -0.00297   0.00144   0.00175   0.00091   0.00118  -0.00010  -0.00006  -0.00025  -0.00034   0.00006   0.00008  -0.00147  -0.00164   0.00030   0.00023   0.00156   0.00111   0.00044   0.00013  -0.00009  -0.00006  -0.00057  -0.00049   0.00008   0.00009  -0.00002   0.00001  -0.00002  -0.00001   0.00005  -0.00002   0.00001   0.00000  -0.00001  -0.00001   0.00004   0.00001   0.00003   0.00003  -0.00000  -0.00000  -0.00014  -0.00013   0.00001   0.00003   0.00014   0.00018   0.00001   0.00001  -0.00001  -0.00000  -0.00000  -0.00000   0.00001   0.00001  -0.00002  -0.00001
-19.37422  -0.01156  -0.01508  -0.04821  -0.05741  -0.04573  -0.05398   0.01837   0.01588  -0.01733  -0.01424  -0.00035  -0.00011   0.00376   0.00307  -0.00432  -0.00412  -0.00148  -0.00219   0.00163   0.00171  -0.00149  -0.00152   0.00032   0.00010   0.00067   0.00069   0.00088   0.00102  -0.00106  -0.00175   0.00210   0.00239  -0.00046  -0.00048  -0.00032   0.00017   0.00008   0.00009  -0.00047  -0.00058  -0.00051  -0.00074   0.00001   0.00001  -0.00139  -0.00142   0.00008  -0.00002   0.00001   0.00001  -0.00122  -0.00140   0.00219  -0.00069  -0.00264  -0.00342   0.00061  -0.00019   0.00055   0.00028   0.00390   0.00244  -0.00012  -0.00005  -0.00011   0.00025  -0.00033  -0.00231  -0.00208  -0.00276   0.00083   0.00088   0.00090   0.00099   0.00017   0.00015  -0.00026  -0.00028  -0.00003  -0.00003  -0.00014   0.00039   0.00002  -0.00015  -0.00011  -0.00016  -0.00043  -0.00028   0.00017   0.00019   0.00000  -0.00019  -0.00141  -0.00304   0.00120   0.00181   0.00078   0.00122  -0.00009  -0.00007  -0.00021  -0.00035   0.00005   0.00008  -0.00130  -0.00171   0.00029   0.00024   0.00150   0.00118   0.00045   0.00015  -0.00009  -0.00007  -0.00053  -0.00052   0.00010   0.00010  -0.00001   0.00001  -0.00002  -0.00001   0.00005  -0.00002   0.00001   0.00000  -0.00001  -0.00001   0.00005   0.00001   0.00003   0.00004  -0.00000  -0.00000  -0.00011  -0.00014   0.00001   0.00003   0.00012   0.00018   0.00001   0.00001  -0.00001  -0.00001  -0.00000  -0.00000   0.00001   0.00001  -0.00001  -0.00001
-19.32416  -0.01155  -0.01565  -0.04987  -0.05990  -0.04606  -0.05629   0.02002   0.01688  -0.02048  -0.01527  -0.00054  -0.00013   0.00444   0.00330  -0.00462  -0.00435  -0.00142  -0.00226   0.00169   0.00179  -0.00167  -0.00160   0.00047   0.00012   0.00075   0.00073   0.00089   0.00106  -0.00102  -0.00180   0.00217   0.00250  -0.00052  -0.00051  -0.00054   0.00015   0.00009   0.00009  -0.00047  -0.00060  -0.00049  -0.00076   0.00001   0.00001  -0.00150  -0.00149   0.00013  -0.00001   0.00001   0.00001  -0.00122  -0.00146   0.00316  -0.00053  -0.00249  -0.00354   0.00091  -0.00014   0.00066   0.00031   0.00450   0.00266  -0.00014  -0.00005  -0.00028   0.00024   0.00040  -0.00229  -0.00179  -0.00285   0.00080   0.00092   0.00098   0.00104   0.00023   0.00017  -0.00029  -0.00030  -0.00003  -0.00003  -0.00023   0.00038   0.00005  -0.00015  -0.00011  -0.00016  -0.00052  -0.00031   0.00019   0.00020   0.00004  -0.00019  -0.00127  -0.00310   0.00119   0.00187   0.00085   0.00126  -0.00014  -0.00008  -0.00023  -0.00036   0.00005   0.00009  -0.00133  -0.00178   0.00031   0.00026   0.00174   0.00127   0.00060   0.00018  -0.00011  -0.00007  -0.00057  -0.00054   0.00013   0.00010  -0.00002   0.00001  -0.00003  -0.00001   0.00007  -0.00001   0.00001   0.00000  -0.00000  -0.00001   0.00006   0.00001   0.00003   0.00004  -0.00000  -0.00000  -0.00010  -0.00015   0.00000   0.00003   0.00012   0.00019   0.00001   0.00002  -0.00001  -0.00001  -0.00000  -0.00000   0.00001   0.00001  -0.00001  -0.00001
-19.27409  -0.01485  -0.01640  -0.06565  -0.06319  -0.05778  -0.05918   0.02696   0.01823  -0.03062  -0.01680  -0.00098  -0.00018   0.00655   0.00362  -0.00622  -0.00466  -0.00169  -0.00235   0.00219   0.00190  -0.00241  -0.00173   0.00087   0.00017   0.00108   0.00078   0.00115   0.00112  -0.00122  -0.00186   0.00283   0.00265  -0.00076  -0.00055  -0.00114   0.00009   0.00013   0.00010  -0.00061  -0.00064  -0.00057  -0.00079   0.00001   0.00001  -0.00218  -0.00160   0.00030   0.00000   0.00002   0.00001  -0.00153  -0.00154   0.00445  -0.00031  -0.00217  -0.00365   0.00136  -0.00007   0.00080   0.00035   0.00518   0.00292  -0.00016  -0.00006  -0.00055   0.00021   0.00166  -0.00220  -0.00197  -0.00295   0.00099   0.00097   0.00132   0.00110   0.00035   0.00018  -0.00040  -0.00032  -0.00003  -0.00003  -0.00029   0.00036   0.00007  -0.00014  -0.00012  -0.00017  -0.00057  -0.00033   0.00020   0.00021   0.00006  -0.00019  -0.00144  -0.00317   0.00151   0.00195   0.00123   0.00132  -0.00026  -0.00009  -0.00035  -0.00038   0.00006   0.00009  -0.00166  -0.00186   0.00041   0.00028   0.00246   0.00139   0.00096   0.00023  -0.00015  -0.00008  -0.00075  -0.00058   0.00014   0.00011  -0.00003   0.00001  -0.00003  -0.00002   0.00010  -0.00001   0.00001   0.00000  -0.00000  -0.00001   0.00007   0.00002   0.00003   0.00004  -0.00000  -0.00000  -0.00012  -0.00015   0.00000   0.00003   0.00013   0.00019   0.00002   0.00002  -0.00001  -0.00001  -0.00000  -0.00000   0.00001   0.00001  -0.00002  -0.00001
-19.22403  -0.02255  -0.01753  -0.09999  -0.06820  -0.08499  -0.06343   0.04036   0.02025  -0.04875  -0.01924  -0.00169  -0.00027   0.01012   0.00413  -0.00944  -0.00513  -0.00241  -0.00247   0.00321   0.00206  -0.00381  -0.00192   0.00151   0.00024   0.00167   0.00087   0.00170   0.00121  -0.00175  -0.00195   0.00418   0.00285  -0.00123  -0.00061  -0.00209  -0.00002   0.00020   0.00011  -0.00091  -0.00068  -0.00078  -0.00083   0.00002   0.00001  -0.00350  -0.00178   0.00058   0.00003   0.00003   0.00002  -0.00224  -0.00165   0.00616   0.00000  -0.00193  -0.00375   0.00200   0.00003   0.00099   0.00040   0.00619   0.00323  -0.00020  -0.00007  -0.00089   0.00016   0.00348  -0.00203  -0.00276  -0.00309   0.00144   0.00104   0.00196   0.00120   0.00053   0.00021  -0.00058  -0.00035  -0.00005  -0.00004  -0.00033   0.00034   0.00008  -0.00014  -0.00012  -0.00017  -0.00060  -0.00036   0.00021   0.00023   0.00008  -0.00018  -0.00199  -0.00327   0.00225   0.00206   0.00195   0.00142  -0.00046  -0.00011  -0.00056  -0.00041   0.00009   0.00009  -0.00234  -0.00198   0.00059   0.00031   0.00380   0.00158   0.00160   0.00031  -0.00022  -0.00009  -0.00110  -0.00064   0.00014   0.00012  -0.00007   0.00000  -0.00004  -0.00002   0.00016  -0.00000   0.00002   0.00000  -0.00001  -0.00001   0.00007   0.00002   0.00003   0.00004  -0.00001  -0.00000  -0.00017  -0.00016  -0.00000   0.00003   0.00018   0.00020   0.00003   0.00002  -0.00001  -0.00001  -0.00000  -0.00000   0.00001   0.00001  -0.00005  -0.00002