ESCALE ; pCOOP file generated by LOBSTER. Energy is shifted such that the Fermi level lies at 0 eV.
        75          1        801  -2.35321e+01   1.65179e+01  -3.50711e+00 
Average
No.1:O204->W270(1.7131523302553981)
No.1:O204[2s]->W270[6s](1.7131523302553981)
No.1:O204[2s]->W270[5d_xy](1.7131523302553981)
No.1:O204[2s]->W270[5d_yz](1.7131523302553981)
No.1:O204[2s]->W270[5d_z^2](1.7131523302553981)
No.1:O204[2s]->W270[5d_xz](1.7131523302553981)
No.1:O204[2s]->W270[5d_x^2-y^2](1.7131523302553981)
No.1:O204[2p_y]->W270[6s](1.7131523302553981)
No.1:O204[2p_y]->W270[5d_xy](1.7131523302553981)
No.1:O204[2p_y]->W270[5d_yz](1.7131523302553981)
No.1:O204[2p_y]->W270[5d_z^2](1.7131523302553981)
No.1:O204[2p_y]->W270[5d_xz](1.7131523302553981)
No.1:O204[2p_y]->W270[5d_x^2-y^2](1.7131523302553981)
No.1:O204[2p_z]->W270[6s](1.7131523302553981)
No.1:O204[2p_z]->W270[5d_xy](1.7131523302553981)
No.1:O204[2p_z]->W270[5d_yz](1.7131523302553981)
No.1:O204[2p_z]->W270[5d_z^2](1.7131523302553981)
No.1:O204[2p_z]->W270[5d_xz](1.7131523302553981)
No.1:O204[2p_z]->W270[5d_x^2-y^2](1.7131523302553981)
No.1:O204[2p_x]->W270[6s](1.7131523302553981)
No.1:O204[2p_x]->W270[5d_xy](1.7131523302553981)
No.1:O204[2p_x]->W270[5d_yz](1.7131523302553981)
No.1:O204[2p_x]->W270[5d_z^2](1.7131523302553981)
No.1:O204[2p_x]->W270[5d_xz](1.7131523302553981)
No.1:O204[2p_x]->W270[5d_x^2-y^2](1.7131523302553981)
No.2:H49->W270(1.7100749933868786)
No.2:H49[1s]->W270[6s](1.7100749933868786)
No.2:H49[1s]->W270[5d_xy](1.7100749933868786)
No.2:H49[1s]->W270[5d_yz](1.7100749933868786)
No.2:H49[1s]->W270[5d_z^2](1.7100749933868786)
No.2:H49[1s]->W270[5d_xz](1.7100749933868786)
No.2:H49[1s]->W270[5d_x^2-y^2](1.7100749933868786)
No.3:C2->W270(2.0978951434873729)
No.3:C2[2s]->W270[6s](2.0978951434873729)
No.3:C2[2s]->W270[5d_xy](2.0978951434873729)
No.3:C2[2s]->W270[5d_yz](2.0978951434873729)
No.3:C2[2s]->W270[5d_z^2](2.0978951434873729)
No.3:C2[2s]->W270[5d_xz](2.0978951434873729)
No.3:C2[2s]->W270[5d_x^2-y^2](2.0978951434873729)
No.3:C2[2p_y]->W270[6s](2.0978951434873729)
No.3:C2[2p_y]->W270[5d_xy](2.0978951434873729)
No.3:C2[2p_y]->W270[5d_yz](2.0978951434873729)
No.3:C2[2p_y]->W270[5d_z^2](2.0978951434873729)
No.3:C2[2p_y]->W270[5d_xz](2.0978951434873729)
No.3:C2[2p_y]->W270[5d_x^2-y^2](2.0978951434873729)
No.3:C2[2p_z]->W270[6s](2.0978951434873729)
No.3:C2[2p_z]->W270[5d_xy](2.0978951434873729)
No.3:C2[2p_z]->W270[5d_yz](2.0978951434873729)
No.3:C2[2p_z]->W270[5d_z^2](2.0978951434873729)
No.3:C2[2p_z]->W270[5d_xz](2.0978951434873729)
No.3:C2[2p_z]->W270[5d_x^2-y^2](2.0978951434873729)
No.3:C2[2p_x]->W270[6s](2.0978951434873729)
No.3:C2[2p_x]->W270[5d_xy](2.0978951434873729)
No.3:C2[2p_x]->W270[5d_yz](2.0978951434873729)
No.3:C2[2p_x]->W270[5d_z^2](2.0978951434873729)
No.3:C2[2p_x]->W270[5d_xz](2.0978951434873729)
No.3:C2[2p_x]->W270[5d_x^2-y^2](2.0978951434873729)
No.4:C1->C2(1.3514030908845605)
No.4:C1[2s]->C2[2s](1.3514030908845605)
No.4:C1[2s]->C2[2p_y](1.3514030908845605)
No.4:C1[2s]->C2[2p_z](1.3514030908845605)
No.4:C1[2s]->C2[2p_x](1.3514030908845605)
No.4:C1[2p_y]->C2[2s](1.3514030908845605)
No.4:C1[2p_y]->C2[2p_y](1.3514030908845605)
No.4:C1[2p_y]->C2[2p_z](1.3514030908845605)
No.4:C1[2p_y]->C2[2p_x](1.3514030908845605)
No.4:C1[2p_z]->C2[2s](1.3514030908845605)
No.4:C1[2p_z]->C2[2p_y](1.3514030908845605)
No.4:C1[2p_z]->C2[2p_z](1.3514030908845605)
No.4:C1[2p_z]->C2[2p_x](1.3514030908845605)
No.4:C1[2p_x]->C2[2s](1.3514030908845605)
No.4:C1[2p_x]->C2[2p_y](1.3514030908845605)
No.4:C1[2p_x]->C2[2p_z](1.3514030908845605)
No.4:C1[2p_x]->C2[2p_x](1.3514030908845605)
-20.02503   0.00000  -0.00004   0.00000  -0.00006   0.00000   0.00006   0.00000  -0.00015   0.00000   0.00003   0.00000  -0.00000   0.00000  -0.00000   0.00000   0.00003   0.00000   0.00000   0.00000  -0.00001   0.00000   0.00000   0.00000   0.00000   0.00000  -0.00000   0.00000  -0.00001   0.00000   0.00000   0.00000  -0.00002   0.00000   0.00000   0.00000  -0.00000   0.00000  -0.00000   0.00000   0.00000   0.00000   0.00000   0.00000   0.00000   0.00000   0.00000   0.00000   0.00000   0.00000   0.00000   0.00000   0.00001   0.00000  -0.00004   0.00000  -0.00001   0.00000   0.00000   0.00000  -0.00000   0.00000  -0.00002   0.00000  -0.00000   0.00000  -0.00001   0.00000  -0.00004   0.00000  -0.00001   0.00000  -0.00002   0.00000  -0.00001   0.00000  -0.00000   0.00000   0.00001   0.00000  -0.00000   0.00000   0.00000   0.00000  -0.00000   0.00000  -0.00000   0.00000   0.00001   0.00000  -0.00001   0.00000   0.00000   0.00000   0.00000   0.00000  -0.00001   0.00000  -0.00000   0.00000  -0.00000   0.00000  -0.00000   0.00000  -0.00000   0.00000   0.00000   0.00000   0.00000   0.00000   0.00000   0.00000   0.00001   0.00000  -0.00000   0.00000  -0.00000   0.00000  -0.00002   0.00000  -0.00001   0.00000   0.00000   0.00000  -0.00001   0.00000  -0.00000   0.00000  -0.00000   0.00000  -0.00001   0.00000  -0.00000   0.00000  -0.00000   0.00000   0.00001   0.00000  -0.00000   0.00000  -0.00000   0.00000   0.00000   0.00000   0.00000   0.00000  -0.00000   0.00000  -0.00000   0.00000  -0.00000
-19.97497  -0.00006  -0.00004  -0.00013  -0.00006  -0.00002   0.00006  -0.00013  -0.00016   0.00002   0.00003  -0.00000  -0.00000  -0.00001  -0.00001   0.00003   0.00003  -0.00000   0.00000  -0.00001  -0.00001   0.00000   0.00000   0.00000   0.00000  -0.00000  -0.00000  -0.00001  -0.00001  -0.00000   0.00000  -0.00002  -0.00002   0.00000   0.00000  -0.00000  -0.00000  -0.00000  -0.00000   0.00000   0.00000  -0.00000   0.00000   0.00000   0.00000   0.00000   0.00000   0.00000   0.00000   0.00000   0.00000   0.00001   0.00001  -0.00005  -0.00004  -0.00002  -0.00001  -0.00000   0.00000  -0.00000  -0.00000  -0.00002  -0.00002  -0.00000  -0.00000  -0.00000  -0.00001  -0.00003  -0.00004  -0.00002  -0.00001  -0.00001  -0.00003  -0.00000  -0.00001   0.00000  -0.00000   0.00000   0.00001  -0.00000  -0.00000   0.00000   0.00000  -0.00000  -0.00000  -0.00000  -0.00000   0.00000   0.00001  -0.00000  -0.00001   0.00000   0.00000   0.00000   0.00000  -0.00000  -0.00002   0.00000  -0.00000  -0.00000  -0.00000  -0.00000  -0.00000  -0.00000  -0.00000   0.00000   0.00000   0.00000   0.00000   0.00000   0.00000   0.00000   0.00001  -0.00000  -0.00000  -0.00000  -0.00000  -0.00002  -0.00002  -0.00001  -0.00001   0.00000   0.00000  -0.00001  -0.00001  -0.00000  -0.00000  -0.00000  -0.00000  -0.00000  -0.00001  -0.00000  -0.00000  -0.00000  -0.00000   0.00000   0.00001  -0.00000  -0.00000  -0.00000  -0.00001  -0.00000   0.00000   0.00000   0.00000  -0.00000  -0.00000   0.00000  -0.00000  -0.00000  -0.00000
-19.92491  -0.00007  -0.00004  -0.00016  -0.00007  -0.00002   0.00005  -0.00018  -0.00017   0.00005   0.00003   0.00000  -0.00000  -0.00002  -0.00001   0.00003   0.00003  -0.00000   0.00000  -0.00001  -0.00001   0.00000   0.00000  -0.00000   0.00000  -0.00000  -0.00000  -0.00001  -0.00001  -0.00000   0.00000  -0.00002  -0.00003   0.00000   0.00000   0.00000  -0.00000  -0.00000  -0.00000   0.00000   0.00000  -0.00000   0.00000   0.00000   0.00000   0.00000   0.00000  -0.00000   0.00000   0.00000   0.00000   0.00001   0.00001  -0.00005  -0.00004  -0.00002  -0.00001  -0.00000   0.00000  -0.00000  -0.00000  -0.00002  -0.00002  -0.00000  -0.00000  -0.00000  -0.00001  -0.00004  -0.00004  -0.00001  -0.00001  -0.00002  -0.00003  -0.00000  -0.00001   0.00000  -0.00000   0.00000   0.00001  -0.00000  -0.00000  -0.00000   0.00000  -0.00000  -0.00000  -0.00000  -0.00000   0.00000   0.00001  -0.00000  -0.00001   0.00000   0.00000   0.00000   0.00000  -0.00000  -0.00002   0.00000  -0.00000  -0.00000  -0.00000  -0.00000  -0.00000  -0.00000  -0.00000   0.00000   0.00000   0.00000   0.00000   0.00000   0.00000   0.00000   0.00001  -0.00000  -0.00000  -0.00000  -0.00000  -0.00002  -0.00002  -0.00001  -0.00001   0.00000   0.00000  -0.00001  -0.00001  -0.00000  -0.00000  -0.00000  -0.00000  -0.00000  -0.00001  -0.00000  -0.00000  -0.00000  -0.00000   0.00000   0.00001  -0.00000  -0.00000  -0.00000  -0.00001  -0.00000   0.00000   0.00000   0.00000  -0.00000  -0.00000   0.00000  -0.00000  -0.00000  -0.00000
-19.87484  -0.00007  -0.00005  -0.00018  -0.00008  -0.00001   0.00005  -0.00026  -0.00018   0.00010   0.00004   0.00000  -0.00000  -0.00003  -0.00001   0.00005   0.00003  -0.00000   0.00000  -0.00002  -0.00001   0.00001   0.00000  -0.00000   0.00000  -0.00001  -0.00000  -0.00001  -0.00001  -0.00000   0.00000  -0.00003  -0.00003   0.00000   0.00000   0.00001  -0.00000  -0.00000  -0.00000   0.00001   0.00000  -0.00000   0.00000   0.00001   0.00001   0.00001   0.00000  -0.00000   0.00000   0.00000   0.00000   0.00002   0.00001  -0.00004  -0.00004  -0.00002  -0.00002  -0.00000   0.00000  -0.00000  -0.00000  -0.00002  -0.00002  -0.00000  -0.00000   0.00000  -0.00001  -0.00005  -0.00004  -0.00001  -0.00001  -0.00002  -0.00003  -0.00001  -0.00001  -0.00000  -0.00000   0.00000   0.00001  -0.00000  -0.00000  -0.00000   0.00000   0.00000  -0.00000   0.00000  -0.00000   0.00000   0.00001  -0.00000  -0.00001  -0.00000   0.00000   0.00000   0.00000  -0.00000  -0.00002   0.00000  -0.00000  -0.00000  -0.00000  -0.00000  -0.00000  -0.00000  -0.00000   0.00000   0.00000   0.00000   0.00000   0.00000   0.00000   0.00000   0.00001  -0.00000  -0.00000  -0.00000  -0.00000  -0.00002  -0.00002  -0.00001  -0.00001   0.00000   0.00000  -0.00001  -0.00001  -0.00000  -0.00000  -0.00000  -0.00000  -0.00000  -0.00001  -0.00000  -0.00000  -0.00000  -0.00000   0.00000   0.00001  -0.00000  -0.00000  -0.00000  -0.00001  -0.00000   0.00000   0.00000   0.00000  -0.00000  -0.00000   0.00000  -0.00000  -0.00000  -0.00000
-19.82478  -0.00008  -0.00005  -0.00018  -0.00009   0.00001   0.00006  -0.00036  -0.00020   0.00017   0.00005   0.00000  -0.00000  -0.00005  -0.00001   0.00007   0.00004   0.00000   0.00000  -0.00002  -0.00001   0.00001   0.00000  -0.00001   0.00000  -0.00001  -0.00000  -0.00002  -0.00001   0.00000   0.00000  -0.00004  -0.00003   0.00000   0.00000   0.00001  -0.00000  -0.00000  -0.00000   0.00001   0.00001   0.00000   0.00000   0.00001   0.00001   0.00002   0.00001  -0.00000   0.00000   0.00000   0.00000   0.00002   0.00001  -0.00004  -0.00005  -0.00002  -0.00002  -0.00001   0.00000  -0.00000  -0.00000  -0.00002  -0.00003  -0.00000  -0.00000   0.00000  -0.00001  -0.00006  -0.00004  -0.00000  -0.00001  -0.00003  -0.00003  -0.00002  -0.00001  -0.00000  -0.00000   0.00001   0.00001  -0.00000  -0.00000  -0.00000   0.00000   0.00000  -0.00000   0.00000  -0.00000  -0.00000   0.00001   0.00000  -0.00001  -0.00000   0.00000   0.00000   0.00000  -0.00000  -0.00002   0.00000  -0.00000  -0.00000  -0.00000  -0.00000  -0.00000  -0.00000  -0.00000  -0.00000   0.00000   0.00000   0.00000   0.00000   0.00000   0.00000   0.00001  -0.00000  -0.00000  -0.00000  -0.00000  -0.00003  -0.00002  -0.00001  -0.00001   0.00000   0.00000  -0.00001  -0.00001  -0.00000  -0.00000  -0.00000  -0.00000  -0.00000  -0.00001  -0.00000  -0.00000  -0.00000  -0.00000  -0.00000   0.00001  -0.00000  -0.00000  -0.00000  -0.00001  -0.00000   0.00000   0.00000   0.00000  -0.00000  -0.00000   0.00000  -0.00000  -0.00000  -0.00000
-19.77472  -0.00008  -0.00006  -0.00017  -0.00010   0.00006   0.00006  -0.00049  -0.00022   0.00026   0.00006   0.00001  -0.00000  -0.00008  -0.00001   0.00009   0.00004   0.00000   0.00000  -0.00003  -0.00002   0.00002   0.00001  -0.00001  -0.00000  -0.00001  -0.00000  -0.00003  -0.00001   0.00000   0.00000  -0.00006  -0.00003   0.00000   0.00000   0.00002  -0.00000  -0.00000  -0.00000   0.00001   0.00001   0.00000   0.00000   0.00001   0.00001   0.00003   0.00001  -0.00001   0.00000   0.00000   0.00000   0.00003   0.00002  -0.00003  -0.00005  -0.00001  -0.00002  -0.00001  -0.00000  -0.00000  -0.00000  -0.00001  -0.00003  -0.00000  -0.00000   0.00000  -0.00000  -0.00007  -0.00005   0.00001  -0.00001  -0.00005  -0.00003  -0.00003  -0.00002  -0.00001  -0.00000   0.00001   0.00001  -0.00000  -0.00000  -0.00000   0.00000   0.00000  -0.00000   0.00000  -0.00000  -0.00000   0.00001   0.00000  -0.00001  -0.00000   0.00000   0.00000   0.00000  -0.00001  -0.00002   0.00000  -0.00000  -0.00000  -0.00000  -0.00000  -0.00000  -0.00000  -0.00000  -0.00000   0.00000   0.00000   0.00000   0.00000   0.00000   0.00000   0.00001  -0.00000  -0.00000  -0.00000  -0.00000  -0.00003  -0.00003  -0.00001  -0.00001   0.00000   0.00000  -0.00001  -0.00001  -0.00000  -0.00000   0.00000  -0.00000  -0.00000  -0.00001  -0.00000  -0.00000  -0.00000  -0.00000  -0.00000   0.00001  -0.00000  -0.00000  -0.00000  -0.00001  -0.00000   0.00000   0.00000   0.00000  -0.00000  -0.00000   0.00000  -0.00000  -0.00000  -0.00000
-19.72466  -0.00008  -0.00006  -0.00016  -0.00011   0.00011   0.00006  -0.00062  -0.00025   0.00036   0.00008   0.00001  -0.00000  -0.00010  -0.00002   0.00011   0.00005   0.00000   0.00000  -0.00004  -0.00002   0.00002   0.00001  -0.00002  -0.00000  -0.00002  -0.00001  -0.00003  -0.00001   0.00000   0.00000  -0.00007  -0.00004   0.00000   0.00000   0.00003   0.00000  -0.00000  -0.00000   0.00001   0.00001   0.00000   0.00000   0.00002   0.00001   0.00003   0.00001  -0.00001   0.00000   0.00000   0.00000   0.00004   0.00002  -0.00003  -0.00005  -0.00001  -0.00002  -0.00001  -0.00000  -0.00000  -0.00000  -0.00001  -0.00003  -0.00000  -0.00000   0.00000  -0.00000  -0.00008  -0.00005   0.00002  -0.00001  -0.00006  -0.00003  -0.00004  -0.00002  -0.00001  -0.00000   0.00002   0.00001  -0.00000  -0.00000  -0.00000   0.00000   0.00000  -0.00000   0.00000  -0.00000  -0.00000   0.00001   0.00000  -0.00001  -0.00000   0.00000   0.00000   0.00000  -0.00001  -0.00002  -0.00000  -0.00000  -0.00000  -0.00000  -0.00000  -0.00000  -0.00000  -0.00000  -0.00000   0.00000   0.00000   0.00000   0.00000   0.00000   0.00000   0.00001  -0.00000  -0.00000  -0.00000  -0.00000  -0.00003  -0.00003  -0.00001  -0.00001   0.00000   0.00000  -0.00001  -0.00001  -0.00000  -0.00000   0.00000  -0.00000  -0.00001  -0.00001  -0.00000  -0.00000  -0.00000  -0.00000  -0.00000   0.00001  -0.00000  -0.00000  -0.00000  -0.00001  -0.00000   0.00000   0.00000   0.00000  -0.00000  -0.00000   0.00000  -0.00000  -0.00000  -0.00000
-19.67459  -0.00007  -0.00006  -0.00013  -0.00011   0.00017   0.00007  -0.00074  -0.00029   0.00044   0.00010   0.00001   0.00000  -0.00012  -0.00003   0.00014   0.00005   0.00001   0.00000  -0.00005  -0.00002   0.00003   0.00001  -0.00002  -0.00000  -0.00002  -0.00001  -0.00004  -0.00002   0.00000   0.00000  -0.00009  -0.00004   0.00000   0.00000   0.00003   0.00000  -0.00000  -0.00000   0.00002   0.00001   0.00000   0.00000   0.00002   0.00001   0.00004   0.00001  -0.00001  -0.00000   0.00000   0.00000   0.00005   0.00002  -0.00003  -0.00005  -0.00001  -0.00002  -0.00001  -0.00000  -0.00000  -0.00000  -0.00002  -0.00003  -0.00000  -0.00000   0.00000  -0.00000  -0.00009  -0.00006   0.00004  -0.00000  -0.00007  -0.00004  -0.00004  -0.00002  -0.00001  -0.00000   0.00002   0.00001  -0.00000  -0.00000  -0.00000   0.00000   0.00000  -0.00000   0.00000  -0.00000  -0.00000   0.00001   0.00000  -0.00001  -0.00000   0.00000  -0.00000   0.00000  -0.00001  -0.00002  -0.00000  -0.00000  -0.00000  -0.00000  -0.00000  -0.00000  -0.00000  -0.00000  -0.00000   0.00000   0.00000   0.00000   0.00000   0.00001   0.00000   0.00001  -0.00000  -0.00000  -0.00000  -0.00000  -0.00004  -0.00003  -0.00001  -0.00001   0.00000   0.00000  -0.00001  -0.00001  -0.00000  -0.00000   0.00000  -0.00000  -0.00001  -0.00001  -0.00000  -0.00000  -0.00000  -0.00000  -0.00000   0.00001  -0.00000  -0.00000  -0.00000  -0.00001  -0.00000   0.00000   0.00000   0.00000  -0.00000  -0.00000   0.00000  -0.00000  -0.00000  -0.00000
-19.62453  -0.00007  -0.00007  -0.00010  -0.00012   0.00021   0.00008  -0.00082  -0.00033   0.00050   0.00012   0.00001   0.00000  -0.00013  -0.00003   0.00015   0.00006   0.00001   0.00000  -0.00005  -0.00002   0.00003   0.00001  -0.00002  -0.00000  -0.00002  -0.00001  -0.00004  -0.00002   0.00000   0.00000  -0.00009  -0.00004   0.00000   0.00000   0.00004   0.00000  -0.00000  -0.00000   0.00002   0.00001   0.00000   0.00000   0.00002   0.00001   0.00005   0.00001  -0.00001  -0.00000   0.00000   0.00000   0.00005   0.00002  -0.00004  -0.00005  -0.00002  -0.00002  -0.00001  -0.00000  -0.00000  -0.00000  -0.00002  -0.00003  -0.00000  -0.00000   0.00000  -0.00000  -0.00010  -0.00006   0.00005  -0.00000  -0.00008  -0.00004  -0.00005  -0.00002  -0.00001  -0.00000   0.00002   0.00001  -0.00000  -0.00000  -0.00001   0.00000   0.00000  -0.00000   0.00000  -0.00000  -0.00000   0.00001   0.00000  -0.00001  -0.00000   0.00000  -0.00000   0.00000  -0.00001  -0.00002  -0.00000  -0.00000  -0.00000  -0.00001  -0.00000  -0.00000  -0.00000  -0.00000  -0.00000   0.00000   0.00000   0.00000   0.00000   0.00001   0.00000   0.00001  -0.00000  -0.00000  -0.00000  -0.00000  -0.00004  -0.00003  -0.00001  -0.00001   0.00000   0.00000  -0.00001  -0.00001  -0.00000  -0.00000   0.00000  -0.00000  -0.00001  -0.00001  -0.00000  -0.00000  -0.00000  -0.00000  -0.00000   0.00001  -0.00000  -0.00000  -0.00001  -0.00001  -0.00000   0.00000   0.00000   0.00000  -0.00000  -0.00000   0.00000  -0.00000  -0.00000  -0.00000
-19.57447  -0.00007  -0.00007  -0.00007  -0.00012   0.00023   0.00009  -0.00083  -0.00037   0.00051   0.00015   0.00001   0.00000  -0.00013  -0.00004   0.00015   0.00007   0.00001   0.00000  -0.00005  -0.00003   0.00003   0.00001  -0.00002  -0.00000  -0.00002  -0.00001  -0.00004  -0.00002   0.00001   0.00000  -0.00010  -0.00005   0.00000   0.00000   0.00004   0.00001  -0.00000  -0.00000   0.00002   0.00001   0.00000   0.00000   0.00002   0.00001   0.00005   0.00002  -0.00001  -0.00000   0.00000   0.00000   0.00005   0.00003  -0.00006  -0.00006  -0.00002  -0.00002  -0.00001  -0.00000  -0.00000  -0.00000  -0.00003  -0.00003  -0.00000  -0.00000   0.00000  -0.00000  -0.00011  -0.00007   0.00005   0.00000  -0.00008  -0.00005  -0.00005  -0.00002  -0.00001  -0.00000   0.00002   0.00001  -0.00000  -0.00000  -0.00001   0.00000   0.00000  -0.00000   0.00000  -0.00000  -0.00000   0.00001   0.00000  -0.00001  -0.00000   0.00000  -0.00000   0.00000  -0.00001  -0.00002  -0.00000  -0.00000  -0.00001  -0.00001  -0.00000  -0.00000  -0.00000  -0.00000  -0.00000   0.00000   0.00000   0.00000   0.00000   0.00001   0.00000   0.00001  -0.00000  -0.00000   0.00000  -0.00000  -0.00004  -0.00003  -0.00001  -0.00001   0.00000   0.00000  -0.00001  -0.00001  -0.00000  -0.00000   0.00000  -0.00000  -0.00001  -0.00001  -0.00000  -0.00000  -0.00000  -0.00000  -0.00000   0.00001  -0.00000  -0.00000  -0.00001  -0.00001  -0.00000   0.00000   0.00000   0.00000  -0.00000  -0.00000   0.00000  -0.00000  -0.00000  -0.00001
-19.52441  -0.00007  -0.00007  -0.00005  -0.00012   0.00023   0.00011  -0.00078  -0.00041   0.00047   0.00017   0.00001   0.00000  -0.00011  -0.00004   0.00015   0.00008   0.00001   0.00000  -0.00005  -0.00003   0.00003   0.00001  -0.00002  -0.00001  -0.00002  -0.00001  -0.00004  -0.00002   0.00001   0.00000  -0.00009  -0.00005   0.00000   0.00000   0.00003   0.00001  -0.00000  -0.00000   0.00002   0.00001   0.00000   0.00000   0.00002   0.00001   0.00004   0.00002  -0.00001  -0.00000   0.00000   0.00000   0.00005   0.00003  -0.00008  -0.00006  -0.00003  -0.00002  -0.00001  -0.00000  -0.00000  -0.00000  -0.00003  -0.00003  -0.00000  -0.00000   0.00000  -0.00000  -0.00010  -0.00007   0.00004   0.00000  -0.00007  -0.00005  -0.00005  -0.00003  -0.00001  -0.00001   0.00002   0.00001  -0.00000  -0.00000  -0.00001   0.00000   0.00000  -0.00000  -0.00000  -0.00000   0.00000   0.00001  -0.00000  -0.00001  -0.00000   0.00000  -0.00001   0.00000  -0.00001  -0.00002   0.00000  -0.00000  -0.00001  -0.00001  -0.00000  -0.00000  -0.00000  -0.00000  -0.00000   0.00000  -0.00000   0.00000   0.00000   0.00001   0.00000   0.00001  -0.00000  -0.00000   0.00000  -0.00000  -0.00004  -0.00004  -0.00001  -0.00001   0.00000   0.00000  -0.00001  -0.00001  -0.00000  -0.00000   0.00000  -0.00000  -0.00001  -0.00001  -0.00000  -0.00000  -0.00000  -0.00000   0.00000   0.00001  -0.00000  -0.00000  -0.00001  -0.00001  -0.00000   0.00000   0.00000   0.00000  -0.00000  -0.00000   0.00000  -0.00000  -0.00000  -0.00001
-19.47434  -0.00007  -0.00008  -0.00002  -0.00012   0.00021   0.00012  -0.00068  -0.00045   0.00041   0.00019   0.00001   0.00000  -0.00008  -0.00005   0.00013   0.00008   0.00001   0.00000  -0.00004  -0.00003   0.00002   0.00001  -0.00002  -0.00001  -0.00001  -0.00001  -0.00004  -0.00002   0.00000   0.00000  -0.00008  -0.00006   0.00000   0.00000   0.00003   0.00001  -0.00000  -0.00000   0.00001   0.00001   0.00000   0.00000   0.00002   0.00001   0.00004   0.00002  -0.00001  -0.00000   0.00000   0.00000   0.00004   0.00003  -0.00011  -0.00007  -0.00005  -0.00002  -0.00002  -0.00000  -0.00000  -0.00000  -0.00005  -0.00003  -0.00000  -0.00000   0.00000  -0.00000  -0.00010  -0.00008   0.00004   0.00000  -0.00006  -0.00005  -0.00004  -0.00003  -0.00001  -0.00001   0.00001   0.00001  -0.00000  -0.00000  -0.00001   0.00000   0.00000  -0.00000  -0.00000  -0.00000   0.00000   0.00001  -0.00000  -0.00001  -0.00000   0.00000  -0.00001   0.00000  -0.00001  -0.00002   0.00000  -0.00000  -0.00001  -0.00001  -0.00000  -0.00000  -0.00000  -0.00000  -0.00001   0.00000  -0.00000   0.00000   0.00000   0.00001   0.00001   0.00001  -0.00000  -0.00000   0.00000  -0.00000  -0.00005  -0.00004  -0.00001  -0.00001   0.00000   0.00000  -0.00001  -0.00001  -0.00000  -0.00000  -0.00000  -0.00000  -0.00002  -0.00001  -0.00000  -0.00000  -0.00000  -0.00000   0.00001   0.00001  -0.00000  -0.00000  -0.00001  -0.00001  -0.00000   0.00000   0.00000   0.00000  -0.00000  -0.00000   0.00000  -0.00000  -0.00001  -0.00001
-19.42428  -0.00006  -0.00008   0.00003  -0.00012   0.00019   0.00013  -0.00058  -0.00048   0.00035   0.00021   0.00001   0.00000  -0.00006  -0.00005   0.00011   0.00009   0.00001   0.00000  -0.00003  -0.00003   0.00002   0.00001  -0.00001  -0.00001  -0.00001  -0.00001  -0.00003  -0.00003   0.00000   0.00000  -0.00006  -0.00006   0.00000   0.00000   0.00002   0.00001  -0.00000  -0.00000   0.00001   0.00001   0.00000   0.00000   0.00001   0.00001   0.00003   0.00002  -0.00001  -0.00000   0.00000   0.00000   0.00004   0.00003  -0.00013  -0.00007  -0.00006  -0.00003  -0.00002  -0.00000  -0.00000  -0.00000  -0.00006  -0.00004  -0.00000  -0.00000   0.00000  -0.00000  -0.00009  -0.00008   0.00003   0.00001  -0.00005  -0.00005  -0.00003  -0.00003  -0.00001  -0.00001   0.00001   0.00002  -0.00000  -0.00000  -0.00001   0.00000   0.00000  -0.00000  -0.00000  -0.00000   0.00001   0.00001  -0.00001  -0.00001  -0.00000   0.00000  -0.00001   0.00000  -0.00001  -0.00002   0.00000  -0.00000  -0.00001  -0.00001  -0.00000  -0.00000  -0.00000  -0.00000  -0.00001   0.00000  -0.00000   0.00000   0.00000   0.00001   0.00001   0.00001  -0.00000  -0.00000   0.00000   0.00000  -0.00007  -0.00004  -0.00001  -0.00001   0.00000   0.00000  -0.00001  -0.00001  -0.00000  -0.00000  -0.00000  -0.00000  -0.00003  -0.00001  -0.00000  -0.00000  -0.00000  -0.00000   0.00001   0.00001  -0.00000  -0.00000  -0.00001  -0.00001  -0.00000   0.00000   0.00000   0.00000  -0.00000  -0.00000   0.00000  -0.00000  -0.00001  -0.00001
-19.37422  -0.00005  -0.00008   0.00013  -0.00012   0.00023   0.00014  -0.00050  -0.00050   0.00034   0.00023   0.00001   0.00000  -0.00005  -0.00005   0.00010   0.00009   0.00001   0.00000  -0.00003  -0.00003   0.00002   0.00002  -0.00001  -0.00001  -0.00001  -0.00001  -0.00003  -0.00003   0.00000   0.00000  -0.00005  -0.00006   0.00000   0.00000   0.00002   0.00001  -0.00000  -0.00000   0.00001   0.00001   0.00000   0.00000   0.00001   0.00001   0.00003   0.00002  -0.00001  -0.00000   0.00000   0.00000   0.00003   0.00003  -0.00016  -0.00008  -0.00007  -0.00003  -0.00003  -0.00001  -0.00000  -0.00000  -0.00007  -0.00004  -0.00000  -0.00000   0.00001  -0.00000  -0.00007  -0.00008   0.00002   0.00001  -0.00003  -0.00006  -0.00003  -0.00003  -0.00001  -0.00001   0.00001   0.00002  -0.00000  -0.00000  -0.00001  -0.00000   0.00000  -0.00000  -0.00000  -0.00000   0.00001   0.00001  -0.00001  -0.00001  -0.00001   0.00000  -0.00001   0.00000  -0.00001  -0.00002   0.00001   0.00000  -0.00002  -0.00001  -0.00001  -0.00000  -0.00000  -0.00000  -0.00001   0.00000  -0.00000   0.00000   0.00000   0.00001   0.00001   0.00001  -0.00000  -0.00000   0.00001   0.00000  -0.00008  -0.00005  -0.00002  -0.00001   0.00001   0.00000  -0.00001  -0.00001  -0.00000  -0.00000  -0.00000  -0.00000  -0.00003  -0.00001  -0.00000  -0.00000  -0.00000  -0.00000   0.00001   0.00002  -0.00000  -0.00000  -0.00001  -0.00001   0.00000   0.00000   0.00000   0.00000  -0.00000  -0.00000   0.00000  -0.00000  -0.00001  -0.00001
-19.32416   0.00000  -0.00008   0.00036  -0.00010   0.00036   0.00015  -0.00052  -0.00053   0.00044   0.00025   0.00001   0.00000  -0.00006  -0.00006   0.00011   0.00010   0.00001   0.00001  -0.00003  -0.00003   0.00002   0.00002  -0.00002  -0.00001  -0.00001  -0.00001  -0.00003  -0.00003   0.00001   0.00000  -0.00005  -0.00007   0.00000   0.00000   0.00003   0.00001  -0.00000  -0.00000   0.00001   0.00001   0.00001   0.00000   0.00001   0.00001   0.00003   0.00002  -0.00001  -0.00000   0.00000   0.00000   0.00003   0.00004  -0.00019  -0.00009  -0.00008  -0.00003  -0.00003  -0.00001  -0.00000  -0.00000  -0.00008  -0.00004  -0.00000  -0.00000   0.00001  -0.00000  -0.00005  -0.00009   0.00003   0.00001  -0.00003  -0.00006  -0.00003  -0.00003  -0.00001  -0.00001   0.00002   0.00002  -0.00000  -0.00000  -0.00001  -0.00000   0.00000  -0.00000  -0.00000  -0.00000   0.00002   0.00001  -0.00002  -0.00001  -0.00001   0.00000  -0.00001   0.00000  -0.00001  -0.00002   0.00001   0.00000  -0.00002  -0.00001  -0.00001  -0.00000  -0.00000  -0.00000  -0.00000   0.00000  -0.00000   0.00000   0.00000   0.00001   0.00001   0.00001  -0.00000  -0.00000   0.00001   0.00000  -0.00010  -0.00005  -0.00002  -0.00002   0.00001   0.00000  -0.00001  -0.00001  -0.00000  -0.00000  -0.00001  -0.00000  -0.00004  -0.00002  -0.00000  -0.00000  -0.00000  -0.00000   0.00001   0.00002  -0.00001  -0.00000  -0.00001  -0.00001   0.00000   0.00000   0.00000   0.00000  -0.00000  -0.00000   0.00000  -0.00000  -0.00002  -0.00001
-19.27409   0.00011  -0.00008   0.00081  -0.00006   0.00067   0.00019  -0.00069  -0.00056   0.00070   0.00029   0.00002   0.00001  -0.00010  -0.00006   0.00014   0.00011   0.00002   0.00001  -0.00004  -0.00004   0.00004   0.00002  -0.00003  -0.00001  -0.00002  -0.00001  -0.00003  -0.00003   0.00001   0.00000  -0.00007  -0.00007   0.00001   0.00000   0.00005   0.00002  -0.00000  -0.00000   0.00001   0.00001   0.00001   0.00000   0.00001   0.00001   0.00005   0.00003  -0.00001  -0.00000   0.00000   0.00000   0.00004   0.00004  -0.00023  -0.00010  -0.00010  -0.00004  -0.00005  -0.00001  -0.00000  -0.00000  -0.00010  -0.00005  -0.00000  -0.00000   0.00002  -0.00000  -0.00004  -0.00009   0.00004   0.00001  -0.00002  -0.00006  -0.00004  -0.00003  -0.00001  -0.00001   0.00002   0.00002  -0.00000  -0.00000  -0.00001  -0.00000   0.00000  -0.00000  -0.00000  -0.00000   0.00002   0.00001  -0.00002  -0.00001  -0.00001  -0.00000  -0.00001   0.00000  -0.00001  -0.00002   0.00000   0.00000  -0.00001  -0.00001  -0.00001  -0.00000  -0.00000  -0.00000  -0.00000  -0.00000  -0.00000   0.00000  -0.00000   0.00001   0.00001   0.00001  -0.00000  -0.00000   0.00001   0.00000  -0.00011  -0.00006  -0.00002  -0.00002   0.00001   0.00000  -0.00001  -0.00001  -0.00000  -0.00000  -0.00001  -0.00000  -0.00004  -0.00002  -0.00000  -0.00000  -0.00000  -0.00000   0.00001   0.00002  -0.00001  -0.00000  -0.00001  -0.00001   0.00000   0.00000   0.00000   0.00000  -0.00000  -0.00000   0.00000  -0.00000  -0.00002  -0.00001
-19.22403   0.00028  -0.00006   0.00154   0.00002   0.00123   0.00025  -0.00102  -0.00061   0.00115   0.00034   0.00003   0.00001  -0.00018  -0.00007   0.00021   0.00012   0.00003   0.00001  -0.00005  -0.00004   0.00006   0.00002  -0.00005  -0.00001  -0.00003  -0.00001  -0.00005  -0.00003   0.00002   0.00001  -0.00010  -0.00007   0.00001   0.00000   0.00008   0.00002  -0.00000  -0.00000   0.00002   0.00001   0.00002   0.00000   0.00002   0.00002   0.00009   0.00003  -0.00002  -0.00001   0.00000   0.00000   0.00006   0.00004  -0.00029  -0.00012  -0.00013  -0.00005  -0.00007  -0.00001  -0.00000  -0.00000  -0.00012  -0.00006  -0.00000  -0.00000   0.00003  -0.00000  -0.00003  -0.00009   0.00008   0.00001  -0.00003  -0.00006  -0.00005  -0.00004  -0.00002  -0.00001   0.00002   0.00002  -0.00000  -0.00000  -0.00000  -0.00000   0.00000  -0.00000   0.00000  -0.00000   0.00002   0.00001  -0.00002  -0.00001  -0.00002  -0.00000   0.00001   0.00000  -0.00001  -0.00002   0.00000   0.00000  -0.00001  -0.00001  -0.00000  -0.00000  -0.00000  -0.00000   0.00000   0.00000  -0.00000  -0.00000  -0.00001   0.00001   0.00000   0.00001  -0.00000  -0.00000   0.00001   0.00000  -0.00011  -0.00006  -0.00002  -0.00002   0.00001   0.00000  -0.00002  -0.00001  -0.00000  -0.00000  -0.00001  -0.00000  -0.00004  -0.00002  -0.00000  -0.00000  -0.00000  -0.00000   0.00000   0.00002  -0.00001  -0.00000  -0.00001  -0.00001   0.00000   0.00000   0.00000   0.00000  -0.00000  -0.00000   0.00000  -0.00000  -0.00002  -0.00001