  COHP#    atomMU    atomNU   distance   translation   ICOHP (at) eF 
                                                          for spin 1 
      1      O204      W270    1.71315     0   0   0       -10.50466 
      1   O204_2s   W270_6s    1.71315     0   0   0        -1.53634 
      1   O204_2s W270_5d_xy    1.71315     0   0   0        -0.51713 
      1   O204_2s W270_5d_yz    1.71315     0   0   0        -0.74645 
      1   O204_2s W270_5d_z^2    1.71315     0   0   0        -0.00165 
      1   O204_2s W270_5d_xz    1.71315     0   0   0        -0.36286 
      1   O204_2s W270_5d_x^2-y^2    1.71315     0   0   0        -0.06787 
      1 O204_2p_y   W270_6s    1.71315     0   0   0        -0.04753 
      1 O204_2p_y W270_5d_xy    1.71315     0   0   0        -0.37750 
      1 O204_2p_y W270_5d_yz    1.71315     0   0   0        -0.44443 
      1 O204_2p_y W270_5d_z^2    1.71315     0   0   0        -0.23207 
      1 O204_2p_y W270_5d_xz    1.71315     0   0   0        -1.08452 
      1 O204_2p_y W270_5d_x^2-y^2    1.71315     0   0   0        -0.34162 
      1 O204_2p_z   W270_6s    1.71315     0   0   0        -0.04062 
      1 O204_2p_z W270_5d_xy    1.71315     0   0   0        -1.21857 
      1 O204_2p_z W270_5d_yz    1.71315     0   0   0        -0.04901 
      1 O204_2p_z W270_5d_z^2    1.71315     0   0   0        -1.06648 
      1 O204_2p_z W270_5d_xz    1.71315     0   0   0        -0.03749 
      1 O204_2p_z W270_5d_x^2-y^2    1.71315     0   0   0        -0.10952 
      1 O204_2p_x   W270_6s    1.71315     0   0   0        -0.01328 
      1 O204_2p_x W270_5d_xy    1.71315     0   0   0         0.00073 
      1 O204_2p_x W270_5d_yz    1.71315     0   0   0        -1.14324 
      1 O204_2p_x W270_5d_z^2    1.71315     0   0   0        -0.12063 
      1 O204_2p_x W270_5d_xz    1.71315     0   0   0         0.00472 
      1 O204_2p_x W270_5d_x^2-y^2    1.71315     0   0   0        -0.95128 
      2       H49      W270    1.71007     0   0   0        -3.03137 
      2    H49_1s   W270_6s    1.71007     0   0   0        -0.67812 
      2    H49_1s W270_5d_xy    1.71007     0   0   0        -0.70153 
      2    H49_1s W270_5d_yz    1.71007     0   0   0        -0.02001 
      2    H49_1s W270_5d_z^2    1.71007     0   0   0        -0.67724 
      2    H49_1s W270_5d_xz    1.71007     0   0   0        -0.00651 
      2    H49_1s W270_5d_x^2-y^2    1.71007     0   0   0        -0.94795 
      3        C2      W270    2.09790     0   0   0        -3.98065 
      3     C2_2s   W270_6s    2.09790     0   0   0        -0.44176 
      3     C2_2s W270_5d_xy    2.09790     0   0   0        -0.26803 
      3     C2_2s W270_5d_yz    2.09790     0   0   0        -0.27412 
      3     C2_2s W270_5d_z^2    2.09790     0   0   0        -0.03530 
      3     C2_2s W270_5d_xz    2.09790     0   0   0        -0.33442 
      3     C2_2s W270_5d_x^2-y^2    2.09790     0   0   0        -0.00010 
      3   C2_2p_y   W270_6s    2.09790     0   0   0        -0.04528 
      3   C2_2p_y W270_5d_xy    2.09790     0   0   0        -0.07623 
      3   C2_2p_y W270_5d_yz    2.09790     0   0   0        -0.01432 
      3   C2_2p_y W270_5d_z^2    2.09790     0   0   0        -0.09828 
      3   C2_2p_y W270_5d_xz    2.09790     0   0   0        -0.46556 
      3   C2_2p_y W270_5d_x^2-y^2    2.09790     0   0   0        -0.10406 
      3   C2_2p_z   W270_6s    2.09790     0   0   0        -0.16035 
      3   C2_2p_z W270_5d_xy    2.09790     0   0   0        -0.35963 
      3   C2_2p_z W270_5d_yz    2.09790     0   0   0        -0.18526 
      3   C2_2p_z W270_5d_z^2    2.09790     0   0   0        -0.00123 
      3   C2_2p_z W270_5d_xz    2.09790     0   0   0        -0.30913 
      3   C2_2p_z W270_5d_x^2-y^2    2.09790     0   0   0        -0.00353 
      3   C2_2p_x   W270_6s    2.09790     0   0   0        -0.11510 
      3   C2_2p_x W270_5d_xy    2.09790     0   0   0        -0.02069 
      3   C2_2p_x W270_5d_yz    2.09790     0   0   0        -0.45019 
      3   C2_2p_x W270_5d_z^2    2.09790     0   0   0        -0.10137 
      3   C2_2p_x W270_5d_xz    2.09790     0   0   0        -0.02009 
      3   C2_2p_x W270_5d_x^2-y^2    2.09790     0   0   0        -0.09659 
      4        C1        C2    1.35140     0   0   0       -11.63802 
      4     C1_2s     C2_2s    1.35140     0   0   0        -1.35950 
      4     C1_2s   C2_2p_y    1.35140     0   0   0        -0.15793 
      4     C1_2s   C2_2p_z    1.35140     0   0   0        -2.05373 
      4     C1_2s   C2_2p_x    1.35140     0   0   0        -0.01084 
      4   C1_2p_y     C2_2s    1.35140     0   0   0        -0.17951 
      4   C1_2p_y   C2_2p_y    1.35140     0   0   0        -0.64755 
      4   C1_2p_y   C2_2p_z    1.35140     0   0   0        -0.34864 
      4   C1_2p_y   C2_2p_x    1.35140     0   0   0        -0.03756 
      4   C1_2p_z     C2_2s    1.35140     0   0   0        -2.77322 
      4   C1_2p_z   C2_2p_y    1.35140     0   0   0        -0.40270 
      4   C1_2p_z   C2_2p_z    1.35140     0   0   0        -1.40722 
      4   C1_2p_z   C2_2p_x    1.35140     0   0   0        -0.08600 
      4   C1_2p_x     C2_2s    1.35140     0   0   0        -0.02816 
      4   C1_2p_x   C2_2p_y    1.35140     0   0   0        -0.03761 
      4   C1_2p_x   C2_2p_z    1.35140     0   0   0        -0.09539 
      4   C1_2p_x   C2_2p_x    1.35140     0   0   0        -2.01246 