 vasp.5.4.4.18Apr17-6-g9f103f2a35 (build Oct 20 2021 08:33:53) complex           
 executed on             LinuxGNU date 2024.05.04  11:50:12
 running on   32 total cores
 distrk:  each k-point on   32 cores,    1 groups
 distr:  one band on NCORES_PER_BAND=   4 cores,    8 groups


--------------------------------------------------------------------------------------------------------


 INCAR:
 POTCAR:    PAW_PBE C 08Apr2002                   
 POTCAR:    PAW_PBE H 15Jun2001                   
 POTCAR:    PAW_PBE O 08Apr2002                   
 POTCAR:    PAW_PBE Si 05Jan2001                  
 POTCAR:    PAW_PBE W 08Apr2002                   
 POTCAR:    PAW_PBE C 08Apr2002                   
   VRHFIN =C: s2p2                                                              
   LEXCH  = PE                                                                  
   EATOM  =   147.1560 eV,   10.8157 Ry                                         
                                                                                
   TITEL  = PAW_PBE C 08Apr2002                                                 
   LULTRA =        F    use ultrasoft PP ?                                      
   IUNSCR =        1    unscreen: 0-lin 1-nonlin 2-no                           
   RPACOR =    1.200    partial core radius                                     
   POMASS =   12.011; ZVAL   =    4.000    mass and valenz                      
   RCORE  =    1.500    outmost cutoff radius                                   
   RWIGS  =    1.630; RWIGS  =    0.863    wigner-seitz radius (au A)           
   ENMAX  =  400.000; ENMIN  =  300.000 eV                                      
   ICORE  =        2    local potential                                         
   LCOR   =        T    correct aug charges                                     
   LPAW   =        T    paw PP                                                  
   EAUG   =  644.873                                                            
   DEXC   =    0.000                                                            
   RMAX   =    1.529    core radius for proj-oper                               
   RAUG   =    1.300    factor for augmentation sphere                          
   RDEP   =    1.501    radius for radial grids                                 
   RDEPT  =    1.300    core radius for aug-charge                              
                                                                                
   Atomic configuration                                                         
    4 entries                                                                   
     n  l   j            E        occ.                                          
     1  0  0.50      -273.3789   2.0000                                         
     2  0  0.50       -13.7508   2.0000                                         
     2  1  0.50        -5.2854   2.0000                                         
     3  2  1.50        -5.4423   0.0000                                         
   Description                                                                  
     l       E           TYP  RCUT    TYP  RCUT                                 
     0    -13.7508458     23  1.200                                             
     0     -8.2022199     23  1.200                                             
     1     -5.2854383     23  1.500                                             
     1     34.0145650     23  1.500                                             
     2     -5.4423304      7  1.500                                             
  local pseudopotential read in
  partial core-charges read in
  partial kinetic energy density read in
  atomic valenz-charges read in
  non local Contribution for L=           0  read in
    real space projection operators read in
  non local Contribution for L=           0  read in
    real space projection operators read in
  non local Contribution for L=           1  read in
    real space projection operators read in
  non local Contribution for L=           1  read in
    real space projection operators read in
    PAW grid and wavefunctions read in

   number of l-projection  operators is LMAX  =           4
   number of lm-projection operators is LMMAX =           8

 POTCAR:    PAW_PBE H 15Jun2001                   
   VRHFIN =H: ultrasoft test                                                    
   LEXCH  = PE                                                                  
   EATOM  =    12.4884 eV,    0.9179 Ry                                         
                                                                                
   TITEL  = PAW_PBE H 15Jun2001                                                 
   LULTRA =        F    use ultrasoft PP ?                                      
   IUNSCR =        0    unscreen: 0-lin 1-nonlin 2-no                           
   RPACOR =    0.000    partial core radius                                     
   POMASS =    1.000; ZVAL   =    1.000    mass and valenz                      
   RCORE  =    1.100    outmost cutoff radius                                   
   RWIGS  =    0.700; RWIGS  =    0.370    wigner-seitz radius (au A)           
   ENMAX  =  250.000; ENMIN  =  200.000 eV                                      
   RCLOC  =    0.701    cutoff for local pot                                    
   LCOR   =        T    correct aug charges                                     
   LPAW   =        T    paw PP                                                  
   EAUG   =  400.000                                                            
   RMAX   =    1.123    core radius for proj-oper                               
   RAUG   =    1.200    factor for augmentation sphere                          
   RDEP   =    1.112    radius for radial grids                                 
   RDEPT  =    0.926    core radius for aug-charge                              
                                                                                
   Atomic configuration                                                         
    2 entries                                                                   
     n  l   j            E        occ.                                          
     1  0  0.50        -6.4927   1.0000                                         
     2  1  0.50        -3.4015   0.0000                                         
   Description                                                                  
     l       E           TYP  RCUT    TYP  RCUT                                 
     0     -6.4927494     23  1.100                                             
     0      6.8029130     23  1.100                                             
     1     -4.0817478     23  1.100                                             
  local pseudopotential read in
  atomic valenz-charges read in
  non local Contribution for L=           0  read in
    real space projection operators read in
  non local Contribution for L=           0  read in
    real space projection operators read in
  non local Contribution for L=           1  read in
    real space projection operators read in
    PAW grid and wavefunctions read in

   number of l-projection  operators is LMAX  =           3
   number of lm-projection operators is LMMAX =           5

 POTCAR:    PAW_PBE O 08Apr2002                   
   VRHFIN =O: s2p4                                                              
   LEXCH  = PE                                                                  
   EATOM  =   432.3788 eV,   31.7789 Ry                                         
                                                                                
   TITEL  = PAW_PBE O 08Apr2002                                                 
   LULTRA =        F    use ultrasoft PP ?                                      
   IUNSCR =        1    unscreen: 0-lin 1-nonlin 2-no                           
   RPACOR =    1.200    partial core radius                                     
   POMASS =   16.000; ZVAL   =    6.000    mass and valenz                      
   RCORE  =    1.520    outmost cutoff radius                                   
   RWIGS  =    1.550; RWIGS  =    0.820    wigner-seitz radius (au A)           
   ENMAX  =  400.000; ENMIN  =  300.000 eV                                      
   ICORE  =        2    local potential                                         
   LCOR   =        T    correct aug charges                                     
   LPAW   =        T    paw PP                                                  
   EAUG   =  605.392                                                            
   DEXC   =    0.000                                                            
   RMAX   =    1.553    core radius for proj-oper                               
   RAUG   =    1.300    factor for augmentation sphere                          
   RDEP   =    1.550    radius for radial grids                                 
   RDEPT  =    1.329    core radius for aug-charge                              
                                                                                
   Atomic configuration                                                         
    4 entries                                                                   
     n  l   j            E        occ.                                          
     1  0  0.50      -514.6923   2.0000                                         
     2  0  0.50       -23.9615   2.0000                                         
     2  1  0.50        -9.0305   4.0000                                         
     3  2  1.50        -9.5241   0.0000                                         
   Description                                                                  
     l       E           TYP  RCUT    TYP  RCUT                                 
     0    -23.9615318     23  1.200                                             
     0     -9.5240782     23  1.200                                             
     1     -9.0304911     23  1.520                                             
     1      8.1634956     23  1.520                                             
     2     -9.5240782      7  1.500                                             
  local pseudopotential read in
  partial core-charges read in
  partial kinetic energy density read in
  kinetic energy density of atom read in
  atomic valenz-charges read in
  non local Contribution for L=           0  read in
    real space projection operators read in
  non local Contribution for L=           0  read in
    real space projection operators read in
  non local Contribution for L=           1  read in
    real space projection operators read in
  non local Contribution for L=           1  read in
    real space projection operators read in
    PAW grid and wavefunctions read in

   number of l-projection  operators is LMAX  =           4
   number of lm-projection operators is LMMAX =           8

 POTCAR:    PAW_PBE Si 05Jan2001                  
   VRHFIN =Si: s2p2                                                             
   LEXCH  = PE                                                                  
   EATOM  =   103.0669 eV,    7.5752 Ry                                         
                                                                                
   TITEL  = PAW_PBE Si 05Jan2001                                                
   LULTRA =        F    use ultrasoft PP ?                                      
   IUNSCR =        1    unscreen: 0-lin 1-nonlin 2-no                           
   RPACOR =    1.500    partial core radius                                     
   POMASS =   28.085; ZVAL   =    4.000    mass and valenz                      
   RCORE  =    1.900    outmost cutoff radius                                   
   RWIGS  =    2.480; RWIGS  =    1.312    wigner-seitz radius (au A)           
   ENMAX  =  245.345; ENMIN  =  184.009 eV                                      
   ICORE  =        2    local potential                                         
   LCOR   =        T    correct aug charges                                     
   LPAW   =        T    paw PP                                                  
   EAUG   =  322.069                                                            
   DEXC   =    0.000                                                            
   RMAX   =    1.950    core radius for proj-oper                               
   RAUG   =    1.300    factor for augmentation sphere                          
   RDEP   =    1.993    radius for radial grids                                 
   RDEPT  =    1.837    core radius for aug-charge                              
                                                                                
   Atomic configuration                                                         
    6 entries                                                                   
     n  l   j            E        occ.                                          
     1  0  0.50     -1785.8828   2.0000                                         
     2  0  0.50      -139.4969   2.0000                                         
     2  1  1.50       -95.5546   6.0000                                         
     3  0  0.50       -10.8127   2.0000                                         
     3  1  0.50        -4.0811   2.0000                                         
     3  2  1.50        -4.0817   0.0000                                         
   Description                                                                  
     l       E           TYP  RCUT    TYP  RCUT                                 
     0    -10.8127223     23  1.900                                             
     0     -7.6451159     23  1.900                                             
     1     -4.0811372     23  1.900                                             
     1      2.4879257     23  1.900                                             
     2     -4.0817478      7  1.900                                             
  local pseudopotential read in
  partial core-charges read in
  partial kinetic energy density read in
  atomic valenz-charges read in
  non local Contribution for L=           0  read in
    real space projection operators read in
  non local Contribution for L=           0  read in
    real space projection operators read in
  non local Contribution for L=           1  read in
    real space projection operators read in
  non local Contribution for L=           1  read in
    real space projection operators read in
    PAW grid and wavefunctions read in

   number of l-projection  operators is LMAX  =           4
   number of lm-projection operators is LMMAX =           8

 POTCAR:    PAW_PBE W 08Apr2002                   
   VRHFIN =W : 6s5d                                                             
   LEXCH  = PE                                                                  
   EATOM  =   204.6103 eV,   15.0384 Ry                                         
                                                                                
   TITEL  = PAW_PBE W 08Apr2002                                                 
   LULTRA =        F    use ultrasoft PP ?                                      
   IUNSCR =        1    unscreen: 0-lin 1-nonlin 2-no                           
   RPACOR =    2.330    partial core radius                                     
   POMASS =  183.850; ZVAL   =    6.000    mass and valenz                      
   RCORE  =    2.750    outmost cutoff radius                                   
   RWIGS  =    2.750; RWIGS  =    1.455    wigner-seitz radius (au A)           
   ENMAX  =  223.057; ENMIN  =  167.293 eV                                      
   RCLOC  =    2.147    cutoff for local pot                                    
   LCOR   =        T    correct aug charges                                     
   LPAW   =        T    paw PP                                                  
   EAUG   =  373.438                                                            
   DEXC   =    0.000                                                            
   RMAX   =    2.801    core radius for proj-oper                               
   RAUG   =    1.300    factor for augmentation sphere                          
   RDEP   =    2.886    radius for radial grids                                 
   RDEPT  =    2.230    core radius for aug-charge                              
                                                                                
   Atomic configuration                                                         
   16 entries                                                                   
     n  l   j            E        occ.                                          
     1  0  0.50    -69465.5836   2.0000                                         
     2  0  0.50    -11986.2642   2.0000                                         
     2  1  1.50    -10479.8616   6.0000                                         
     3  0  0.50     -2759.0758   2.0000                                         
     3  1  1.50     -2313.1857   6.0000                                         
     3  2  2.50     -1801.1185  10.0000                                         
     4  0  0.50      -567.6791   2.0000                                         
     4  1  1.50      -421.4694   6.0000                                         
     4  2  2.50      -236.3473  10.0000                                         
     4  3  3.50       -31.2666  14.0000                                         
     5  0  0.50       -77.1085   2.0000                                         
     5  1  1.50       -41.3856   6.0000                                         
     5  2  2.50        -3.3185   5.0000                                         
     6  0  0.50        -5.1438   1.0000                                         
     6  1  0.50        -3.8096   0.0000                                         
     5  3  2.50        -1.3606   0.0000                                         
   Description                                                                  
     l       E           TYP  RCUT    TYP  RCUT                                 
     2     -3.3185288     23  2.500                                             
     2     -1.5965414     23  2.500                                             
     0     -5.1438054     23  2.500                                             
     0      4.9117504     23  2.500                                             
     1      2.7211652     23  2.750                                             
     1     27.2116520     23  2.750                                             
  local pseudopotential read in
  partial core-charges read in
  partial kinetic energy density read in
  atomic valenz-charges read in
  non local Contribution for L=           2  read in
    real space projection operators read in
  non local Contribution for L=           2  read in
    real space projection operators read in
  non local Contribution for L=           0  read in
    real space projection operators read in
  non local Contribution for L=           0  read in
    real space projection operators read in
  non local Contribution for L=           1  read in
    real space projection operators read in
  non local Contribution for L=           1  read in
    real space projection operators read in
    PAW grid and wavefunctions read in

   number of l-projection  operators is LMAX  =           6
   number of lm-projection operators is LMMAX =          18

 Optimization of the real space projectors (new method)

 maximal supplied QI-value         = 25.13
 optimisation between [QCUT,QGAM] = [ 11.31, 22.87] = [ 35.82,146.48] Ry 
 Optimized for a Real-space Cutoff    1.00 Angstroem

   l    n(q)    QCUT    max X(q) W(low)/X(q) W(high)/X(q)  e(spline) 
   0      7    11.310   115.676    0.43E-03    0.13E-02    0.19E-06
   0      7    11.310    87.132    0.43E-03    0.13E-02    0.18E-06
   1      6    11.310     4.429    0.42E-03    0.74E-03    0.11E-06
   1      6    11.310     2.733    0.34E-03    0.55E-03    0.92E-07
 Optimization of the real space projectors (new method)

 maximal supplied QI-value         = 34.20
 optimisation between [QCUT,QGAM] = [ 11.29, 22.57] = [ 35.68,142.71] Ry 
 Optimized for a Real-space Cutoff    1.16 Angstroem

   l    n(q)    QCUT    max X(q) W(low)/X(q) W(high)/X(q)  e(spline) 
   0      8    11.287    19.460    0.40E-03    0.73E-03    0.16E-06
   0      8    11.287    12.209    0.38E-03    0.70E-03    0.15E-06
   1      7    11.287     4.655    0.22E-03    0.25E-04    0.22E-06
 Optimization of the real space projectors (new method)

 maximal supplied QI-value         = 24.76
 optimisation between [QCUT,QGAM] = [ 11.39, 22.77] = [ 36.31,145.25] Ry 
 Optimized for a Real-space Cutoff    1.00 Angstroem

   l    n(q)    QCUT    max X(q) W(low)/X(q) W(high)/X(q)  e(spline) 
   0      7    11.387    20.381    0.39E-03    0.13E-02    0.15E-06
   0      7    11.387    15.268    0.42E-03    0.14E-02    0.17E-06
   1      6    11.387     5.964    0.41E-03    0.11E-02    0.17E-06
   1      6    11.387     5.382    0.39E-03    0.87E-03    0.15E-06
 Optimization of the real space projectors (new method)

 maximal supplied QI-value         = 19.84
 optimisation between [QCUT,QGAM] = [ 11.31, 22.82] = [ 35.82,145.81] Ry 
 Optimized for a Real-space Cutoff    1.16 Angstroem

   l    n(q)    QCUT    max X(q) W(low)/X(q) W(high)/X(q)  e(spline) 
   0      8    11.310   159.560    0.27E-03    0.30E-03    0.39E-07
   0      8    11.310   115.863    0.27E-03    0.30E-03    0.38E-07
   1      7    11.310    88.339    0.28E-03    0.28E-03    0.77E-07
   1      7    11.310    48.592    0.27E-03    0.27E-03    0.74E-07
 Optimization of the real space projectors (new method)

 maximal supplied QI-value         = 13.61
 optimisation between [QCUT,QGAM] = [ 11.43, 22.86] = [ 36.58,146.31] Ry 
 Optimized for a Real-space Cutoff    1.56 Angstroem

   l    n(q)    QCUT    max X(q) W(low)/X(q) W(high)/X(q)  e(spline) 
   2     10    11.429   130.855    0.22E-03    0.64E-03    0.11E-05
   2     10    11.429   114.007    0.22E-03    0.64E-03    0.11E-05
   0     11    11.429    84.709    0.39E-04    0.67E-04    0.23E-06
   0     11    11.429    49.163    0.35E-04    0.62E-04    0.21E-06
   1     10    11.429    15.765    0.84E-04    0.15E-03    0.24E-06
   1     10    11.429    10.638    0.58E-04    0.12E-03    0.19E-06

 ----------------------------------------------------------------------------- 
|                                                                             |
|  ADVICE TO THIS USER RUNNING 'VASP/VAMP'   (HEAR YOUR MASTER'S VOICE ...):  |
|                                                                             |
|      You enforced a specific xc-type in the INCAR file,                     |
|      a different type was found on the POTCAR file                          |
|          I HOPE YOU KNOW, WHAT YOU ARE  DOING                               |
|                                                                             |
 ----------------------------------------------------------------------------- 

  PAW_PBE C 08Apr2002                   :
 energy of atom  1       EATOM= -147.1560
 kinetic energy error for atom=    0.0076 (will be added to EATOM!!)
  PAW_PBE H 15Jun2001                   :
 energy of atom  2       EATOM=  -12.4884
 kinetic energy error for atom=    0.0020 (will be added to EATOM!!)
  PAW_PBE O 08Apr2002                   :
 energy of atom  3       EATOM= -432.3788
 kinetic energy error for atom=    0.0224 (will be added to EATOM!!)
  PAW_PBE Si 05Jan2001                  :
 energy of atom  4       EATOM= -103.0669
 kinetic energy error for atom=    0.0006 (will be added to EATOM!!)
  PAW_PBE W 08Apr2002                   :
 energy of atom  5       EATOM= -204.6103
 kinetic energy error for atom=    0.0017 (will be added to EATOM!!)


 POSCAR:  C  H  O Si  W                          
  positions in direct lattice
  velocities in cartesian coordinates
 exchange correlation table for  LEXCH =        9
   RHO(1)=    0.500       N(1)  =     2000
   RHO(2)=  100.500       N(2)  =     4000

 VTST: version 3.2, (02/03/18)

 CHAIN: initializing optimizer
 
 OPT: Using VASP QUASI-newton optimizer
 CHAIN: Read ICHAIN            0

 POSCAR:  C  H  O Si  W                          
  positions in direct lattice
  velocities in cartesian coordinates



--------------------------------------------------------------------------------------------------------


 ion  position               nearest neighbor table
   1  0.583  0.477  0.715-  50 1.10  49 1.10   4 1.54 276 2.17
   2  0.507  0.621  0.787-  52 1.10  53 1.10  51 1.11   3 1.53
   3  0.542  0.582  0.747-  54 1.10   2 1.53   4 1.54 276 2.18
   4  0.587  0.525  0.762-  56 1.10  55 1.11   3 1.54   1 1.54 276 2.77
   5  0.761  0.104  0.651- 131 0.97
   6  0.926  0.279  0.356-  79 0.98
   7  0.793  0.207  0.373- 114 0.97
   8  0.975  0.944  0.325- 123 0.97
   9  0.626  0.963  0.375- 125 0.98
  10  0.821  0.995  0.369- 143 0.97
  11  0.750  0.141  0.458- 181 0.98
  12  0.915  0.249  0.510- 186 0.97
  13  0.583  0.304  0.306- 191 0.97
  14  0.893  0.335  0.616-  97 0.98
  15  0.599  0.363  0.612- 142 0.97
  16  0.594  0.871  0.578- 184 0.99
  17  0.034  0.338  0.653- 190 0.97
  18  0.935  0.420  0.454- 179 0.98
  19  0.746  0.530  0.422-  93 1.00
  20  0.803  0.386  0.638- 171 0.97
  21  0.591  0.569  0.378- 105 0.99
  22  0.718  0.646  0.383- 128 0.99
  23  0.841  0.542  0.420- 134 0.98
  24  0.005  0.604  0.358- 139 0.97
  25  0.828  0.712  0.468- 180 0.99
  26  0.879  0.598  0.721-  59 0.97
  27  0.520  0.986  0.422- 141 0.99
  28  0.223  0.980  0.393- 182 1.00
  29  0.216  0.238  0.319- 197 0.99
  30  0.158  0.330  0.279- 188 0.97
  31  0.342  0.156  0.331- 189 0.98
  32  0.223  0.046  0.323- 196 0.97
  33  0.511  0.827  0.547- 199 0.97
  34  0.376  0.241  0.648-  84 0.97
  35  0.244  0.094  0.599- 135 0.98
  36  0.315  0.487  0.442-  58 0.99
  37  0.409  0.439  0.406- 147 0.98
  38  0.398  0.793  0.389- 185 0.97
  39  0.244  0.655  0.294- 193 0.97
  40  0.312  0.418  0.369- 194 0.98
  41  0.405  0.584  0.339- 195 0.97
  42  0.139  0.488  0.352- 187 0.98
  43  0.593  0.698  0.352-  88 0.97
  44  0.469  0.861  0.444- 198 0.99
  45  0.123  0.326  0.613- 107 0.97
  46  0.075  0.663  0.647- 138 0.97
  47  0.244  0.389  0.682- 183 0.97
  48  0.247  0.816  0.670- 192 0.97
  49  0.588  0.417  0.720-   1 1.10
  50  0.611  0.497  0.685-   1 1.10
  51  0.534  0.659  0.808-   2 1.11
  52  0.488  0.581  0.813-   2 1.10
  53  0.472  0.654  0.770-   2 1.10
  54  0.561  0.623  0.721-   3 1.10
  55  0.630  0.548  0.770-   4 1.11
  56  0.573  0.494  0.795-   4 1.10
  57  0.369  0.648  0.439- 230 1.66 265 1.68
  58  0.347  0.504  0.420-  36 0.99 265 1.67
  59  0.862  0.566  0.696-  26 0.97 236 1.64
  60  0.349  0.959  0.531- 241 1.68 274 1.70
  61  0.033  0.932  0.529- 256 1.63 267 1.66
  62  0.636  0.079  0.489- 234 1.60 223 1.65
  63  0.069  0.052  0.395- 222 1.64 214 1.65
  64  0.452  0.130  0.421- 239 1.65 220 1.65
  65  0.806  0.214  0.483- 238 1.67 235 1.69
  66  0.974  0.182  0.599- 216 1.63 246 1.65
  67  0.275  0.299  0.449- 262 1.65 272 1.66
  68  0.556  0.775  0.442- 243 1.51 270 1.66
  69  0.391  0.973  0.620- 260 1.65 274 1.66
  70  0.178  0.350  0.405- 262 1.66 237 1.67
  71  0.867  0.685  0.638- 240 1.64 236 1.64
  72  0.866  0.967  0.467- 232 1.60 247 1.65
  73  0.301  0.761  0.458- 230 1.65 244 1.67
  74  0.422  0.261  0.380- 239 1.67 259 1.67
  75  0.811  0.465  0.520- 266 1.63 213 1.64
  76  0.984  0.072  0.521- 256 1.68 216 1.69
  77  0.510  0.465  0.632- 275 1.66 276 1.98
  78  0.035  0.920  0.429- 267 1.64 214 1.65
  79  0.963  0.303  0.351-   6 0.98 215 1.65
  80  0.070  0.336  0.376- 215 1.64 237 1.65
  81  0.208  0.729  0.395- 244 1.66 254 1.67
  82  0.039  0.419  0.499- 269 1.64 242 1.65
  83  0.240  0.287  0.588- 250 1.63 227 1.63
  84  0.398  0.196  0.645-  34 0.97 221 1.64
  85  0.454  0.564  0.580- 252 1.67 275 1.68
  86  0.910  0.749  0.558- 240 1.64 219 1.66
  87  0.869  0.108  0.442- 247 1.64 235 1.65
  88  0.573  0.667  0.376-  43 0.97 243 1.68
  89  0.142  0.159  0.376- 268 1.65 222 1.65
  90  0.350  0.766  0.607- 212 1.62 253 1.64
  91  0.911  0.845  0.483- 232 1.62 219 1.66
  92  0.061  0.537  0.442- 269 1.66 211 1.67
  93  0.708  0.555  0.420-  19 1.00 225 1.67
  94  0.075  0.817  0.483- 267 1.50 249 1.65
  95  0.700  0.828  0.433- 224 1.53 257 1.65
  96  0.730  0.049  0.543- 258 1.64 223 1.64
  97  0.920  0.302  0.632-  14 0.98 246 1.63
  98  0.735  0.853  0.613- 231 1.66 228 1.68
  99  0.625  0.527  0.486- 233 1.58 225 1.68
 100  0.557  0.630  0.467- 243 1.52 233 1.63
 101  0.426  0.248  0.556- 221 1.68 264 1.68
 102  0.978  0.728  0.477- 249 1.65 219 1.65
 103  0.654  0.595  0.633- 271 1.65 217 1.67
 104  0.397  0.747  0.515- 212 1.65 230 1.65
 105  0.603  0.518  0.386-  21 0.99 225 1.65
 106  0.721  0.631  0.557- 255 1.63 271 1.64
 107  0.148  0.366  0.622-  45 0.97 227 1.64
 108  0.066  0.548  0.542- 269 1.63 273 1.64
 109  0.819  0.885  0.536- 232 1.65 231 1.66
 110  0.828  0.355  0.452- 238 1.65 213 1.65
 111  0.528  0.296  0.531- 264 1.61 245 1.63
 112  0.737  0.499  0.596- 271 1.65 266 1.66
 113  0.557  0.172  0.395- 251 1.59 220 1.64
 114  0.806  0.256  0.383-   7 0.97 238 1.67
 115  0.237  0.953  0.508- 241 1.58 226 1.67
 116  0.693  0.775  0.542- 255 1.63 228 1.64
 117  0.923  0.950  0.553- 256 1.65 232 1.66
 118  0.526  0.318  0.399- 251 1.45 259 1.66
 119  0.468  0.992  0.547- 260 1.68 261 1.69
 120  0.838  0.095  0.540- 235 1.66 258 1.66
 121  0.538  0.116  0.486- 234 1.60 220 1.67
 122  0.350  0.187  0.440- 272 1.63 239 1.65
 123  0.012  0.962  0.335-   8 0.97 214 1.65
 124  0.455  0.594  0.674- 252 1.66 276 1.95
 125  0.655  0.925  0.379-   9 0.98 224 1.66
 126  0.076  0.686  0.436- 211 1.65 249 1.66
 127  0.456  0.405  0.554- 275 1.68 264 1.71
 128  0.719  0.700  0.380-  22 0.99 257 1.65
 129  0.451  0.706  0.599- 252 1.63 212 1.63
 130  0.753  0.709  0.476- 255 1.63 257 1.69
 131  0.779  0.121  0.621-   5 0.97 258 1.64
 132  0.993  0.308  0.448- 242 1.66 215 1.68
 133  0.537  0.510  0.535- 275 1.64 233 1.65
 134  0.817  0.499  0.423-  23 0.98 213 1.69
 135  0.236  0.146  0.605-  35 0.98 250 1.62
 136  0.204  0.831  0.471- 226 1.50 244 1.63
 137  0.240  0.559  0.523- 229 1.65 218 1.66
 138  0.061  0.625  0.624-  46 0.97 273 1.64
 139  0.046  0.602  0.354-  24 0.97 211 1.65
 140  0.801  0.979  0.605- 231 1.66 258 1.68
 141  0.538  0.028  0.405-  27 0.99 220 1.66
 142  0.606  0.312  0.605-  15 0.97 245 1.64
 143  0.862  0.004  0.369-  10 0.97 247 1.66
 144  0.095  0.149  0.467- 248 1.62 222 1.65
 145  0.172  0.205  0.531- 248 1.61 250 1.63
 146  0.641  0.704  0.455- 243 1.65 257 1.66
 147  0.437  0.410  0.386-  37 0.98 259 1.66
 148  0.574  0.058  0.571- 261 1.62 234 1.65
 149  0.151  0.593  0.389- 254 1.68 211 1.68
 150  0.268  0.602  0.392- 265 1.65 254 1.67
 151  0.440  0.322  0.470- 264 1.65 259 1.69
 152  0.238  0.159  0.430- 268 1.65 272 1.67
 153  0.073  0.149  0.562- 248 1.64 216 1.64
 154  0.845  0.545  0.599- 266 1.66 236 1.66
 155  0.621  0.280  0.411- 263 1.65 251 1.66
 156  0.603  0.892  0.467- 270 1.29 224 1.67
 157  0.031  0.195  0.389- 215 1.66 222 1.66
 158  0.608  0.195  0.548- 234 1.62 245 1.63
 159  0.133  0.938  0.479- 267 1.65 226 1.66
 160  0.080  0.280  0.512- 242 1.64 248 1.65
 161  0.372  0.106  0.569- 274 1.63 221 1.69
 162  0.066  0.696  0.536- 249 1.63 273 1.63
 163  0.666  0.415  0.430- 225 1.65 263 1.65
 164  0.800  0.730  0.564- 255 1.61 240 1.63
 165  0.704  0.957  0.470- 223 1.65 224 1.66
 166  0.601  0.637  0.552- 233 1.63 217 1.63
 167  0.723  0.294  0.452- 238 1.63 263 1.64
 168  0.977  0.314  0.547- 242 1.64 246 1.67
 169  0.158  0.630  0.571- 229 1.63 273 1.65
 170  0.633  0.327  0.508- 245 1.62 263 1.65
 171  0.821  0.397  0.606-  20 0.97 266 1.65
 172  0.959  0.027  0.417- 247 1.64 214 1.65
 173  0.282  0.195  0.519- 272 1.63 250 1.65
 174  0.249  0.443  0.461- 218 1.66 262 1.71
 175  0.272  0.850  0.569- 241 1.64 253 1.65
 176  0.204  0.686  0.487- 229 1.63 244 1.66
 177  0.147  0.476  0.493- 218 1.63 269 1.65
 178  0.225  0.424  0.557- 218 1.61 227 1.63
 179  0.911  0.453  0.474-  18 0.98 213 1.65
 180  0.870  0.705  0.464-  25 0.99 219 1.65
 181  0.738  0.093  0.445-  11 0.98 223 1.66
 182  0.222  0.930  0.408-  28 1.00 226 1.64
 183  0.254  0.403  0.649-  47 0.97 227 1.65
 184  0.631  0.883  0.593-  16 0.99 228 1.62
 185  0.410  0.789  0.423-  38 0.97 230 1.68
 186  0.918  0.196  0.508-  12 0.97 235 1.65
 187  0.133  0.444  0.332-  42 0.98 237 1.65
 188  0.155  0.304  0.311-  30 0.97 237 1.69
 189  0.373  0.131  0.348-  31 0.98 239 1.66
 190  0.035  0.293  0.633-  17 0.97 246 1.66
 191  0.573  0.257  0.320-  13 0.97 251 1.66
 192  0.246  0.771  0.650-  48 0.97 253 1.64
 193  0.207  0.648  0.310-  39 0.97 254 1.65
 194  0.275  0.392  0.367-  40 0.98 262 1.66
 195  0.365  0.598  0.342-  41 0.97 265 1.67
 196  0.226  0.056  0.358-  32 0.97 268 1.69
 197  0.241  0.196  0.329-  29 0.99 268 1.66
 198  0.501  0.892  0.455-  44 0.99 270 1.60
 199  0.550  0.828  0.534-  33 0.97 270 1.67
 200  0.545  0.646  0.632- 217 1.65 252 1.67
 201  0.479  0.123  0.596- 261 1.65 221 1.65
 202  0.262  0.695  0.569- 253 1.65 229 1.65
 203  0.442  0.849  0.581- 260 1.65 212 1.68
 204  0.766  0.617  0.650- 271 1.65 236 1.66
 205  0.845  0.832  0.623- 240 1.66 231 1.68
 206  0.640  0.740  0.622- 217 1.66 228 1.71
 207  0.008  0.033  0.603- 216 1.69 256 1.69
 208  0.284  0.003  0.594- 274 1.69 241 1.70
 209  0.503  0.973  0.629- 260 1.69 261 1.70
 210  0.460  0.456  0.742- 276 1.72
 211  0.083  0.606  0.406- 139 1.65 126 1.65  92 1.67 149 1.68 269 3.13
 212  0.409  0.767  0.574-  90 1.62 129 1.63 104 1.65 203 1.68 253 3.06
 213  0.842  0.441  0.468-  75 1.64 110 1.65 179 1.65 134 1.69
 214  0.017  0.990  0.394-  63 1.65 172 1.65  78 1.65 123 1.65 267 3.11 222 3.13
 215  0.015  0.284  0.391-  80 1.64  79 1.65 157 1.66 132 1.68 242 3.11 222 3.11
 216  0.010  0.115  0.572-  66 1.63 153 1.64  76 1.69 207 1.69 256 2.39 248 3.04 246 3.08
 217  0.610  0.658  0.610- 166 1.63 200 1.65 206 1.66 103 1.67 271 2.88 233 3.12
 218  0.214  0.476  0.510- 178 1.61 177 1.63 137 1.66 174 1.66 229 3.10 262 3.14
 219  0.915  0.756  0.496- 102 1.65 180 1.65  86 1.66  91 1.66 232 2.99 240 3.03
 220  0.521  0.110  0.426- 113 1.64  64 1.65 141 1.66 121 1.67 251 3.08 234 3.12
 221  0.419  0.170  0.589-  84 1.64 201 1.65 101 1.68 161 1.69 261 3.14 274 3.14
 222  0.083  0.139  0.407-  63 1.64 144 1.65  89 1.65 157 1.66 215 3.11 214 3.13 268 3.14
 223  0.702  0.045  0.487-  96 1.64 165 1.65  62 1.65 181 1.66 234 3.09 224 3.10 258 3.15
 224  0.665  0.898  0.437-  95 1.53 165 1.66 125 1.66 156 1.67 270 2.83 257 3.06 223 3.10
 225  0.650  0.504  0.430- 105 1.65 163 1.65  93 1.67  99 1.68 233 3.08
 226  0.198  0.912  0.464- 136 1.50 182 1.64 159 1.66 115 1.67 244 3.01 241 3.07 267 3.07
 227  0.215  0.368  0.604-  83 1.63 178 1.63 107 1.64 183 1.65
 228  0.674  0.814  0.595- 184 1.62 116 1.64  98 1.68 206 1.71 255 2.91
 229  0.217  0.642  0.539- 176 1.63 169 1.63 202 1.65 137 1.65 244 3.09 218 3.10 273 3.12
 230  0.369  0.735  0.459-  73 1.65 104 1.65  57 1.66 185 1.68
 231  0.798  0.888  0.595- 140 1.66  98 1.66 109 1.66 205 1.68 240 2.86 232 2.99 258 3.15
 232  0.880  0.912  0.512-  72 1.60  91 1.62 109 1.65 117 1.66 231 2.99 219 2.99 256 3.05 247 3.13

 233  0.577  0.576  0.512-  99 1.58 166 1.63 100 1.63 133 1.65 243 3.00 225 3.08 217 3.12
 234  0.590  0.115  0.525-  62 1.60 121 1.60 158 1.62 148 1.65 261 2.85 223 3.09 245 3.11 220 3.12

 235  0.858  0.152  0.495- 186 1.65  87 1.65 120 1.66  65 1.69 247 3.07 238 3.15
 236  0.836  0.604  0.646-  59 1.64  71 1.64 154 1.66 204 1.66 271 2.93 240 3.00 266 3.01
 237  0.134  0.360  0.357- 187 1.65  80 1.65  70 1.67 188 1.69 262 3.11
 238  0.791  0.280  0.442- 167 1.63 110 1.65 114 1.67  65 1.67 235 3.15
 239  0.399  0.177  0.396-  64 1.65 122 1.65 189 1.66  74 1.67 259 3.07
 240  0.856  0.750  0.597- 164 1.63  86 1.64  71 1.64 205 1.66 231 2.86 236 3.00 219 3.03
 241  0.283  0.935  0.550- 115 1.58 175 1.64  60 1.68 208 1.70 274 2.38 226 3.07
 242  0.023  0.330  0.502- 160 1.64 168 1.64  82 1.65 132 1.66 246 3.10 215 3.11 248 3.14
 243  0.575  0.695  0.436-  68 1.51 100 1.52 146 1.65  88 1.68 233 3.00 270 3.06 257 3.10
 244  0.230  0.753  0.452- 136 1.63 176 1.66  81 1.66  73 1.67 254 2.97 226 3.01 229 3.09
 245  0.594  0.283  0.548- 170 1.62 111 1.63 158 1.63 142 1.64 234 3.11 263 3.14
 246  0.976  0.273  0.603-  97 1.63  66 1.65 190 1.66 168 1.67 216 3.08 242 3.10
 247  0.889  0.025  0.424-  87 1.64 172 1.64  72 1.65 143 1.66 235 3.07 232 3.13
 248  0.105  0.195  0.518- 145 1.61 144 1.62 153 1.64 160 1.65 216 3.04 242 3.14
 249  0.048  0.733  0.483- 162 1.63 102 1.65  94 1.65 126 1.66 267 3.05
 250  0.232  0.207  0.561- 135 1.62  83 1.63 145 1.63 173 1.65 272 3.03
 251  0.561  0.258  0.381- 118 1.45 113 1.59 155 1.66 191 1.66 259 2.87 220 3.08
 252  0.476  0.629  0.620- 129 1.63 124 1.66 200 1.67  85 1.67 275 2.95 276 3.07
 253  0.281  0.771  0.598- 192 1.64  90 1.64 202 1.65 175 1.65 212 3.06
 254  0.209  0.643  0.372- 193 1.65 150 1.67  81 1.67 149 1.68 244 2.97
 255  0.741  0.711  0.536- 164 1.61 130 1.63 106 1.63 116 1.63 228 2.91 257 2.91 271 3.07
 256  0.986  0.990  0.550-  61 1.63 117 1.65  76 1.68 207 1.69 216 2.39 232 3.05
 257  0.703  0.737  0.434-  95 1.65 128 1.65 146 1.66 130 1.69 255 2.91 224 3.06 243 3.10
 258  0.788  0.059  0.577-  96 1.64 131 1.64 120 1.66 140 1.68 231 3.15 223 3.15
 259  0.456  0.328  0.409- 147 1.66 118 1.66  74 1.67 151 1.69 251 2.87 239 3.07
 260  0.449  0.937  0.595-  69 1.65 203 1.65 119 1.68 209 1.69 261 2.36 274 2.74
 261  0.508  0.042  0.586- 148 1.62 201 1.65 119 1.69 209 1.70 260 2.36 234 2.85 221 3.14
 262  0.244  0.370  0.421-  67 1.65  70 1.66 194 1.66 174 1.71 237 3.11 218 3.14
 263  0.659  0.330  0.450- 167 1.64 155 1.65 163 1.65 170 1.65 245 3.14
 264  0.461  0.318  0.529- 111 1.61 151 1.65 101 1.68 127 1.71
 265  0.337  0.590  0.399- 150 1.65 195 1.67  58 1.67  57 1.68
 266  0.804  0.477  0.580-  75 1.63 171 1.65 154 1.66 112 1.66 271 2.90 236 3.01
 267  0.069  0.899  0.481-  94 1.50  78 1.64 159 1.65  61 1.66 249 3.05 226 3.07 214 3.11
 268  0.212  0.144  0.374-  89 1.65 152 1.65 197 1.66 196 1.69 272 3.12 222 3.14
 269  0.078  0.494  0.495- 108 1.63  82 1.64 177 1.65  92 1.66 273 3.09 211 3.13
 270  0.558  0.852  0.475- 156 1.29 198 1.60  68 1.66 199 1.67 224 2.83 243 3.06
 271  0.719  0.585  0.610- 106 1.64 103 1.65 204 1.65 112 1.65 217 2.88 266 2.90 236 2.93 255 3.07

 272  0.287  0.210  0.459- 173 1.63 122 1.63  67 1.66 152 1.67 250 3.03 268 3.12
 273  0.088  0.625  0.568- 162 1.63 138 1.64 108 1.64 169 1.65 269 3.09 229 3.12
 274  0.353  0.020  0.579- 161 1.63  69 1.66 208 1.69  60 1.70 241 2.38 260 2.74 221 3.14
 275  0.487  0.482  0.574- 133 1.64  77 1.66 127 1.68  85 1.68 252 2.95
 276  0.496  0.507  0.698- 210 1.72 124 1.95  77 1.98   1 2.17   3 2.18   4 2.77 252 3.07

  LATTYP: Found a simple orthorhombic cell.
 ALAT       =    18.1212369514
 B/A-ratio  =     1.2919258579
 C/A-ratio  =     1.4835282260
  
  Lattice vectors:
  
 A1 = (   0.0000000000, -18.1212369514,   0.0000000000)
 A2 = ( -23.4112945954,   0.0000000000,   0.0000000000)
 A3 = (   0.0000000000,   0.0000000000, -26.8833665073)


Analysis of symmetry for initial positions (statically):
=====================================================================
 Subroutine PRICEL returns:
 Original cell was already a primitive cell.
 

 Routine SETGRP: Setting up the symmetry group for a 
 simple orthorhombic supercell.


 Subroutine GETGRP returns: Found  1 space group operations
 (whereof  1 operations were pure point group operations)
 out of a pool of  8 trial point group operations.


The static configuration has the point symmetry C_1 .


Analysis of symmetry for dynamics (positions and initial velocities):
=====================================================================
 Subroutine PRICEL returns:
 Original cell was already a primitive cell.
 

 Routine SETGRP: Setting up the symmetry group for a 
 simple orthorhombic supercell.


 Subroutine GETGRP returns: Found  1 space group operations
 (whereof  1 operations were pure point group operations)
 out of a pool of  8 trial point group operations.


The dynamic configuration has the point symmetry C_1 .


Analysis of constrained symmetry for selective dynamics:
=====================================================================
 Subroutine PRICEL returns:
 Original cell was already a primitive cell.
 

 Routine SETGRP: Setting up the symmetry group for a 
 simple orthorhombic supercell.


 Subroutine GETGRP returns: Found  1 space group operations
 (whereof  1 operations were pure point group operations)
 out of a pool of  8 trial point group operations.


The constrained configuration has the point symmetry C_1 .


 Subroutine INISYM returns: Found  1 space group operations
 (whereof  1 operations are pure point group operations),
 and found     1 'primitive' translations



 KPOINTS: KPOINTS created by Atomic Simulation Env

Automatic generation of k-mesh.
Space group operators:
 irot       det(A)        alpha          n_x          n_y          n_z        tau_x        tau_y        tau_z
    1     1.000000     0.000000     1.000000     0.000000     0.000000     0.000000     0.000000     0.000000
 
 Subroutine IBZKPT returns following result:
 ===========================================
 
 Found      5 irreducible k-points:
 
 Following reciprocal coordinates:
            Coordinates               Weight
  0.000000  0.000000  0.000000      1.000000
  0.333333  0.000000  0.000000      2.000000
  0.000000  0.333333  0.000000      2.000000
  0.333333  0.333333  0.000000      2.000000
 -0.333333  0.333333  0.000000      2.000000
 
 Following cartesian coordinates:
            Coordinates               Weight
  0.000000  0.000000  0.000000      1.000000
  0.014238  0.000000  0.000000      2.000000
  0.000000  0.018395  0.000000      2.000000
  0.014238  0.018395  0.000000      2.000000
 -0.014238  0.018395  0.000000      2.000000
 


--------------------------------------------------------------------------------------------------------




 Dimension of arrays:
   k-points           NKPTS =      5   k-points in BZ     NKDIM =      5   number of bands    NBANDS=    768
   number of dos      NEDOS =    301   number of ions     NIONS =    276
   non local maximal  LDIM  =      6   non local SUM 2l+1 LMDIM =     18
   total plane-waves  NPLWV = ******
   max r-space proj   IRMAX =   2748   max aug-charges    IRDMAX=   9808
   dimension x,y,z NGX =   128 NGY =  100 NGZ =  150
   dimension x,y,z NGXF=   256 NGYF=  200 NGZF=  300
   support grid    NGXF=   256 NGYF=  200 NGZF=  300
   ions per type =               4  52 154  65   1
   NGX,Y,Z   is equivalent  to a cutoff of   9.09,  9.17,  9.28 a.u.
   NGXF,Y,Z  is equivalent  to a cutoff of  18.18, 18.35, 18.55 a.u.

 SYSTEM =  unknown system                          
 POSCAR =   C  H  O Si  W                          

 Startparameter for this run:
   NWRITE =      2    write-flag & timer
   PREC   = normal    normal or accurate (medium, high low for compatibility)
   ISTART =      0    job   : 0-new  1-cont  2-samecut
   ICHARG =      2    charge: 1-file 2-atom 10-const
   ISPIN  =      1    spin polarized calculation?
   LNONCOLLINEAR =      F non collinear calculations
   LSORBIT =      F    spin-orbit coupling
   INIWAV =      1    electr: 0-lowe 1-rand  2-diag
   LASPH  =      T    aspherical Exc in radial PAW
   METAGGA=      F    non-selfconsistent MetaGGA calc.

 Electronic Relaxation 1
   ENCUT  =  500.0 eV  36.75 Ry    6.06 a.u.  42.68 33.04 49.01*2*pi/ulx,y,z
   ENINI  =  500.0     initial cutoff
   ENAUG  =  644.9 eV  augmentation charge cutoff
   NELM   =     60;   NELMIN=  2; NELMDL=  0     # of ELM steps 
   EDIFF  = 0.1E-03   stopping-criterion for ELM
   LREAL  =      T    real-space projection
   NLSPLINE    = F    spline interpolate recip. space projectors
   LCOMPAT=      F    compatible to vasp.4.4
   GGA_COMPAT  = T    GGA compatible to vasp.4.4-vasp.4.6
   LMAXPAW     = -100 max onsite density
   LMAXMIX     =    2 max onsite mixed and CHGCAR
   VOSKOWN=      0    Vosko Wilk Nusair interpolation
   ROPT   =   -0.00050  -0.00050  -0.00050  -0.00050
   ROPT   =   -0.00050
 Ionic relaxation
   EDIFFG = -.5E-01   stopping-criterion for IOM
   NSW    =    200    number of steps for IOM
   NBLOCK =      1;   KBLOCK =    200    inner block; outer block 
   IBRION =      1    ionic relax: 0-MD 1-quasi-New 2-CG
   NFREE  =      0    steps in history (QN), initial steepest desc. (CG)
   ISIF   =      0    stress and relaxation
   IWAVPR =     11    prediction:  0-non 1-charg 2-wave 3-comb
   ISYM   =      2    0-nonsym 1-usesym 2-fastsym
   LCORR  =      T    Harris-Foulkes like correction to forces

   POTIM  = 0.5000    time-step for ionic-motion
   TEIN   =    0.0    initial temperature
   TEBEG  =    0.0;   TEEND  =   0.0 temperature during run
   SMASS  =  -3.00    Nose mass-parameter (am)
   estimated Nose-frequenzy (Omega)   =  0.10E-29 period in steps =****** mass=  -0.125E-25a.u.
   SCALEE = 1.0000    scale energy and forces
   NPACO  =    256;   APACO  = 16.0  distance and # of slots for P.C.
   PSTRESS=    0.0 pullay stress

  Mass of Ions in am
   POMASS =  12.01  1.00 16.00 28.09183.85
  Ionic Valenz
   ZVAL   =   4.00  1.00  6.00  4.00  6.00
  Atomic Wigner-Seitz radii
   RWIGS  =  -1.00 -1.00 -1.00 -1.00 -1.00
  virtual crystal weights 
   VCA    =   1.00  1.00  1.00  1.00  1.00
   NELECT =    1258.0000    total number of electrons
   NUPDOWN=      -1.0000    fix difference up-down

 DOS related values:
   EMIN   =  10.00;   EMAX   =-10.00  energy-range for DOS
   EFERMI =   0.00
   ISMEAR =     0;   SIGMA  =   0.20  broadening in eV -4-tet -1-fermi 0-gaus

 Electronic relaxation 2 (details)
   IALGO  =     68    algorithm
   LDIAG  =      T    sub-space diagonalisation (order eigenvalues)
   LSUBROT=      F    optimize rotation matrix (better conditioning)
   TURBO    =      0    0=normal 1=particle mesh
   IRESTART =      0    0=no restart 2=restart with 2 vectors
   NREBOOT  =      0    no. of reboots
   NMIN     =      0    reboot dimension
   EREF     =   0.00    reference energy to select bands
   IMIX   =      4    mixing-type and parameters
     AMIX     =   0.40;   BMIX     =  1.00
     AMIX_MAG =   1.60;   BMIX_MAG =  1.00
     AMIN     =   0.10
     WC   =   100.;   INIMIX=   1;  MIXPRE=   1;  MAXMIX= -45

 Intra band minimization:
   WEIMIN = 0.0010     energy-eigenvalue tresh-hold
   EBREAK =  0.33E-07  absolut break condition
   DEPER  =   0.30     relativ break condition  

   TIME   =   0.40     timestep for ELM

  volume/ion in A,a.u.               =      41.32       278.86
  Fermi-wavevector in a.u.,A,eV,Ry     =   0.785120  1.483662  8.386815  0.616413
  Thomas-Fermi vector in A             =   1.889391

 Write flags
   LWAVE        =      F    write WAVECAR
   LDOWNSAMPLE  =      F    k-point downsampling of WAVECAR
   LCHARG       =      F    write CHGCAR
   LVTOT        =      F    write LOCPOT, total local potential
   LVHAR        =      F    write LOCPOT, Hartree potential only
   LELF         =      F    write electronic localiz. function (ELF)
   LORBIT       =      0    0 simple, 1 ext, 2 COOP (PROOUT), +10 PAW based schemes


 Dipole corrections
   LMONO  =      F    monopole corrections only (constant potential shift)
   LDIPOL =      T    correct potential (dipole corrections)
   IDIPOL =      3    1-x, 2-y, 3-z, 4-all directions 
   EPSILON=  1.0000000 bulk dielectric constant

 Exchange correlation treatment:
   GGA     =    RP    GGA type
   LEXCH   =     9    internal setting for exchange type
   VOSKOWN=      0    Vosko Wilk Nusair interpolation
   LHFCALC =     F    Hartree Fock is set to
   LHFONE  =     F    Hartree Fock one center treatment
   AEXX    =    0.0000 exact exchange contribution

 Linear response parameters
   LEPSILON=     F    determine dielectric tensor
   LRPA    =     F    only Hartree local field effects (RPA)
   LNABLA  =     F    use nabla operator in PAW spheres
   LVEL    =     F    velocity operator in full k-point grid
   LINTERFAST=   F  fast interpolation
   KINTER  =     0    interpolate to denser k-point grid
   CSHIFT  =0.1000    complex shift for real part using Kramers Kronig
   OMEGAMAX=  -1.0    maximum frequency
   DEG_THRESHOLD= 0.2000000E-02 threshold for treating states as degnerate
   RTIME   =   -0.100 relaxation time in fs
  (WPLASMAI=    0.000 imaginary part of plasma frequency in eV, 0.658/RTIME)
   DFIELD  = 0.0000000 0.0000000 0.0000000 field for delta impulse in time

 Orbital magnetization related:
   ORBITALMAG=     F  switch on orbital magnetization
   LCHIMAG   =     F  perturbation theory with respect to B field
   DQ        =  0.001000  dq finite difference perturbation B field
   LLRAUG    =     F  two centre corrections for induced B field



--------------------------------------------------------------------------------------------------------


 quasi-Newton-method for relaxation of ions
   using selective dynamics as specified on POSCAR
 charge density and potential will be updated during run
 non-spin polarized calculation
 RMM-DIIS sequential band-by-band and
  variant of blocked Davidson during initial phase
 perform sub-space diagonalisation
    before iterative eigenvector-optimisation
 modified Broyden-mixing scheme, WC =      100.0
 initial mixing is a Kerker type mixing with AMIX =  0.4000 and BMIX =      1.0000
 Hartree-type preconditioning will be used
 using additional bands          139
 real space projection scheme for non local part
 use partial core corrections
 calculate Harris-corrections to forces   (improved forces if not selfconsistent)
 use gradient corrections 
 use of overlap-Matrix (Vanderbilt PP)
 Gauss-broadening in eV      SIGMA  =   0.20


--------------------------------------------------------------------------------------------------------


  energy-cutoff  :      500.00
  volume of cell :    11405.04
      direct lattice vectors                 reciprocal lattice vectors
    23.411294595  0.000000000  0.000000000     0.042714426  0.000000000  0.000000000
     0.000000000 18.121236951  0.000000000     0.000000000  0.055183871  0.000000000
     0.000000000  0.000000000 26.883366507     0.000000000  0.000000000  0.037197722

  length of vectors
    23.411294595 18.121236951 26.883366507     0.042714426  0.055183871  0.037197722



 k-points in units of 2pi/SCALE and weight: KPOINTS created by Atomic Simulation Env
   0.00000000  0.00000000  0.00000000       0.111
   0.01423814  0.00000000  0.00000000       0.222
   0.00000000  0.01839462  0.00000000       0.222
   0.01423814  0.01839462  0.00000000       0.222
  -0.01423814  0.01839462  0.00000000       0.222

 k-points in reciprocal lattice and weights: KPOINTS created by Atomic Simulation Env
   0.00000000  0.00000000  0.00000000       0.111
   0.33333333  0.00000000  0.00000000       0.222
   0.00000000  0.33333333  0.00000000       0.222
   0.33333333  0.33333333  0.00000000       0.222
  -0.33333333  0.33333333  0.00000000       0.222

 position of ions in fractional coordinates (direct lattice) 
   0.58316263  0.47664656  0.71520959
   0.50662591  0.62136541  0.78689572
   0.54200315  0.58211480  0.74703249
   0.58716619  0.52481762  0.76233299
   0.76104371  0.10405061  0.65097661
   0.92642768  0.27866896  0.35633493
   0.79333970  0.20727890  0.37345652
   0.97453911  0.94360860  0.32530279
   0.62573266  0.96347285  0.37523120
   0.82053840  0.99500666  0.36899263
   0.74999307  0.14117876  0.45803819
   0.91542733  0.24945672  0.50998431
   0.58349286  0.30426355  0.30592717
   0.89252786  0.33495381  0.61620078
   0.59878905  0.36342146  0.61229032
   0.59381554  0.87111916  0.57779085
   0.03382590  0.33775528  0.65273344
   0.93527051  0.41951423  0.45410146
   0.74613838  0.53031199  0.42248819
   0.80261386  0.38602290  0.63751278
   0.59110202  0.56868283  0.37803474
   0.71843379  0.64593279  0.38346059
   0.84115291  0.54242660  0.41959617
   0.00476455  0.60379815  0.35777830
   0.82835870  0.71235667  0.46794226
   0.87886292  0.59847454  0.72088167
   0.51999031  0.98556476  0.42170307
   0.22309457  0.98015484  0.39320502
   0.21637369  0.23785146  0.31923033
   0.15750105  0.32980623  0.27898292
   0.34154688  0.15558571  0.33077276
   0.22271586  0.04575893  0.32273843
   0.51110351  0.82691919  0.54687162
   0.37629346  0.24144561  0.64764815
   0.24352626  0.09397500  0.59872263
   0.31538097  0.48713646  0.44243467
   0.40895618  0.43873486  0.40569060
   0.39849950  0.79311361  0.38878680
   0.24420236  0.65543008  0.29432688
   0.31174138  0.41847571  0.36925764
   0.40547429  0.58427965  0.33881989
   0.13935762  0.48797365  0.35192946
   0.59326935  0.69798713  0.35239799
   0.46900683  0.86142747  0.44382838
   0.12258140  0.32552584  0.61325600
   0.07501145  0.66297662  0.64666082
   0.24373448  0.38927400  0.68238550
   0.24689578  0.81629258  0.66985558
   0.58849634  0.41654299  0.71958519
   0.61097448  0.49699719  0.68520999
   0.53400494  0.65949565  0.80846651
   0.48767342  0.58144379  0.81298781
   0.47187557  0.65424455  0.77038732
   0.56124608  0.62268769  0.72144735
   0.62993088  0.54796331  0.77024492
   0.57270774  0.49408618  0.79537019
   0.36894173  0.64835510  0.43900002
   0.34681565  0.50403387  0.42038813
   0.86160373  0.56608471  0.69643063
   0.34857641  0.95930417  0.53103504
   0.03321026  0.93220869  0.52854773
   0.63635548  0.07886855  0.48937667
   0.06864615  0.05226542  0.39511073
   0.45189954  0.12956232  0.42059728
   0.80588415  0.21365018  0.48316661
   0.97403065  0.18180461  0.59856633
   0.27476529  0.29917287  0.44851223
   0.55635417  0.77509129  0.44175101
   0.39120481  0.97340387  0.62020010
   0.17751724  0.34996845  0.40527312
   0.86668031  0.68482646  0.63763670
   0.86569601  0.96717693  0.46703846
   0.30104714  0.76093683  0.45792526
   0.42161095  0.26125222  0.37959630
   0.81122509  0.46498018  0.52029253
   0.98376640  0.07236245  0.52113272
   0.50978003  0.46467031  0.63153916
   0.03453641  0.91994776  0.42940526
   0.96303654  0.30319531  0.35125762
   0.06962669  0.33610577  0.37637178
   0.20829566  0.72864429  0.39536010
   0.03890126  0.41910192  0.49910875
   0.23952805  0.28673465  0.58774564
   0.39803236  0.19603624  0.64512902
   0.45425575  0.56372001  0.58032886
   0.91022736  0.74912225  0.55753442
   0.86912727  0.10804334  0.44227833
   0.57257679  0.66733185  0.37613173
   0.14242656  0.15912550  0.37597224
   0.35044358  0.76611981  0.60659036
   0.91099605  0.84504757  0.48317962
   0.06133801  0.53687171  0.44225348
   0.70833903  0.55516655  0.41995768
   0.07548726  0.81680680  0.48299416
   0.70046477  0.82755571  0.43263529
   0.73024725  0.04915267  0.54299602
   0.91988260  0.30217060  0.63244829
   0.73540809  0.85258357  0.61291930
   0.62512195  0.52739400  0.48637871
   0.55657330  0.62970304  0.46724942
   0.42576423  0.24788631  0.55570714
   0.97829009  0.72824363  0.47679564
   0.65447896  0.59476989  0.63291403
   0.39666423  0.74742504  0.51514111
   0.60269007  0.51766545  0.38567099
   0.72099313  0.63050466  0.55702607
   0.14820036  0.36592404  0.62167131
   0.06621952  0.54817710  0.54215025
   0.81850309  0.88450294  0.53628298
   0.82821553  0.35538514  0.45190334
   0.52783653  0.29611689  0.53107253
   0.73735475  0.49892856  0.59585235
   0.55743394  0.17243111  0.39490854
   0.80596408  0.25641257  0.38329286
   0.23744622  0.95325075  0.50791956
   0.69290084  0.77546669  0.54174856
   0.92349804  0.94982327  0.55290767
   0.52573722  0.31778112  0.39855594
   0.46762931  0.99167378  0.54663240
   0.83781641  0.09484385  0.53976478
   0.53790325  0.11641749  0.48623709
   0.35019344  0.18660873  0.43963639
   0.01176032  0.96241390  0.33524376
   0.45492758  0.59384773  0.67403635
   0.65496522  0.92539750  0.37922825
   0.07629334  0.68602626  0.43588102
   0.45556166  0.40470615  0.55355698
   0.71921944  0.70042085  0.37958300
   0.45112252  0.70631740  0.59936045
   0.75255106  0.70932458  0.47629548
   0.77941069  0.12101487  0.62072341
   0.99327462  0.30801347  0.44840298
   0.53684758  0.50955085  0.53518738
   0.81677759  0.49906173  0.42344221
   0.23630345  0.14618515  0.60549584
   0.20353331  0.83070132  0.47053363
   0.23976948  0.55917287  0.52266603
   0.06120511  0.62532877  0.62401932
   0.04607407  0.60234669  0.35417863
   0.80086221  0.97861625  0.60548437
   0.53799091  0.02769749  0.40450275
   0.60614428  0.31190310  0.60473728
   0.86154611  0.00408085  0.36920633
   0.09491131  0.14902284  0.46708233
   0.17151964  0.20458166  0.53095452
   0.64098865  0.70443872  0.45481558
   0.43678778  0.40976848  0.38641325
   0.57397817  0.05823467  0.57107948
   0.15143775  0.59340802  0.38895836
   0.26773979  0.60233753  0.39230630
   0.44025846  0.32219818  0.47032443
   0.23800967  0.15851113  0.42990119
   0.07334501  0.14916120  0.56241566
   0.84512320  0.54542005  0.59935074
   0.62117943  0.27993988  0.41090545
   0.60266699  0.89152667  0.46722346
   0.03138539  0.19528983  0.38899188
   0.60802371  0.19483767  0.54764830
   0.13279973  0.93835464  0.47948708
   0.07988031  0.28004733  0.51217220
   0.37212594  0.10560771  0.56936122
   0.06629817  0.69635483  0.53565061
   0.66648838  0.41538488  0.43001156
   0.79975996  0.72982166  0.56414383
   0.70383856  0.95720843  0.47018456
   0.60052636  0.63693548  0.55190864
   0.72284030  0.29368465  0.45166811
   0.97732743  0.31431912  0.54713834
   0.15813313  0.62981913  0.57073370
   0.63333384  0.32678308  0.50780070
   0.82131190  0.39748035  0.60620886
   0.95857820  0.02724304  0.41695300
   0.28209108  0.19546262  0.51864705
   0.24925755  0.44303289  0.46105570
   0.27233576  0.85024769  0.56863500
   0.20366815  0.68557317  0.48688872
   0.14712345  0.47606988  0.49254493
   0.22463032  0.42354321  0.55683412
   0.91141698  0.45274460  0.47371881
   0.86978818  0.70456011  0.46415352
   0.73812021  0.09283462  0.44522965
   0.22218344  0.92978119  0.40794682
   0.25443830  0.40305275  0.64880759
   0.63091522  0.88336442  0.59313706
   0.41022327  0.78906239  0.42343739
   0.91777135  0.19603829  0.50824515
   0.13254706  0.44353611  0.33227266
   0.15514768  0.30352326  0.31056042
   0.37300515  0.13090704  0.34795342
   0.03547710  0.29291242  0.63296115
   0.57268926  0.25686819  0.32009968
   0.24553519  0.77133378  0.65027118
   0.20737430  0.64840505  0.31036906
   0.27537441  0.39219130  0.36737583
   0.36535081  0.59758663  0.34222079
   0.22638085  0.05618082  0.35811888
   0.24120333  0.19607823  0.32934297
   0.50127293  0.89230162  0.45484168
   0.55007493  0.82779371  0.53432563
   0.54515966  0.64620584  0.63214028
   0.47859469  0.12315458  0.59634800
   0.26193388  0.69493303  0.56899766
   0.44221417  0.84858826  0.58127980
   0.76585647  0.61692041  0.64985960
   0.84534931  0.83225747  0.62262330
   0.64007052  0.74013693  0.62152133
   0.00787019  0.03328108  0.60299035
   0.28390738  0.00276142  0.59379138
   0.50295922  0.97267393  0.62885669
   0.45972284  0.45595892  0.74189448
   0.08322528  0.60642030  0.40641308
   0.40883986  0.76709173  0.57426018
   0.84176382  0.44145312  0.46783897
   0.01708949  0.99048204  0.39361135
   0.01470021  0.28419027  0.39108141
   0.00959053  0.11470774  0.57234995
   0.61024676  0.65847952  0.61009760
   0.21398813  0.47624522  0.50964477
   0.91506213  0.75556094  0.49625454
   0.52057854  0.11045563  0.42598659
   0.41862672  0.17036513  0.58949835
   0.08345253  0.13917208  0.40698087
   0.70189793  0.04484625  0.48732303
   0.66505935  0.89803746  0.43747644
   0.65009874  0.50402706  0.43015089
   0.19846065  0.91248223  0.46399069
   0.21527471  0.36773344  0.60391994
   0.67390922  0.81363262  0.59466533
   0.21651567  0.64193403  0.53865529
   0.36878912  0.73512773  0.45920930
   0.79758729  0.88847221  0.59541665
   0.87957813  0.91214749  0.51188580
   0.57747537  0.57572319  0.51241981
   0.58978753  0.11510792  0.52522306
   0.85812234  0.15211323  0.49517595
   0.83590730  0.60417139  0.64593716
   0.13373852  0.36031890  0.35687228
   0.79065529  0.27993925  0.44187265
   0.39917610  0.17749484  0.39600320
   0.85642189  0.75041166  0.59653386
   0.28279786  0.93522982  0.54983559
   0.02307473  0.33044751  0.50224551
   0.57455938  0.69549008  0.43556436
   0.23024095  0.75260050  0.45196954
   0.59400915  0.28317109  0.54793048
   0.97592269  0.27253811  0.60258208
   0.88890636  0.02540900  0.42420019
   0.10483751  0.19529789  0.51783016
   0.04814566  0.73303709  0.48263019
   0.23205907  0.20658869  0.56107555
   0.56140781  0.25778527  0.38122611
   0.47644532  0.62865866  0.62022179
   0.28118205  0.77104915  0.59788545
   0.20850083  0.64339984  0.37179454
   0.74089739  0.71058028  0.53588688
   0.98635442  0.99035960  0.55037982
   0.70310456  0.73681815  0.43426040
   0.78804650  0.05941014  0.57668028
   0.45631390  0.32845159  0.40928789
   0.44900168  0.93725522  0.59478523
   0.50828654  0.04178896  0.58634640
   0.24424715  0.37040632  0.42094710
   0.65852534  0.33000211  0.45034791
   0.46109878  0.31828111  0.52886999
   0.33729937  0.58994254  0.39908301
   0.80391335  0.47686241  0.57989182
   0.06920979  0.89885916  0.48050551
   0.21190758  0.14445432  0.37359659
   0.07823286  0.49398499  0.49468762
   0.55757019  0.85234010  0.47473025
   0.71905049  0.58464872  0.60969097
   0.28664212  0.21010174  0.45911077
   0.08797728  0.62527344  0.56780033
   0.35292223  0.02005296  0.57884995
   0.48736067  0.48177060  0.57430285
   0.49571269  0.50718185  0.69820871

 position of ions in cartesian coordinates  (Angst):
  13.65259218  8.63742517 19.22724166
  11.86076831 11.25990981 21.15440593
  12.68899541 10.54864014 20.08274813
  13.74632060  9.51034436 20.49407722
  17.81701861  1.88552584 17.50044269
  21.68887124  5.04982630  9.57948250
  18.57310935  3.75615001 10.03976840
  22.81522226 17.09935504  8.74523415
  14.64921175 17.45931981 10.08747787
  19.20986618 18.03075152  9.91976410
  17.55830880  2.55833368 12.31360861
  21.43133897  4.52046431 13.71009502
  13.66032332  5.51363181  8.22435231
  20.89523278  6.06977741 16.56555153
  14.01842693  6.58564641 16.46042517
  13.90199065 15.78575669 15.53296311
   0.79190822  6.12054344 17.54767237
  21.89589338  7.60211669 12.20777585
  17.46806539  9.60990927 11.35790489
  18.79022945  6.99521240 17.13848973
  13.83846346 10.30523625 10.16284657
  16.81946503 11.70510106 10.30871170
  19.69247867  9.82944087 11.28015755
   0.11154425 10.94156933  9.61828518
  19.39294954 12.90878407 12.57986315
  20.57531879 10.84509899 19.37972621
  12.17364643 17.85965257 11.33679820
   5.22293275 17.76161801 10.57067472
   5.06558822  4.31016263  8.58198589
   3.68730349  5.97649684  7.50000000
   7.99605454  2.81940543  8.89228530
   5.21406665  0.82920834  8.67629559
  11.96559477 14.98479856 14.70175032
   8.80951699  4.37529303 17.41096249
   5.70126491  1.70294326 16.09567980
   7.38347683  8.82751530 11.89413327
   9.57419369  7.95041833 10.90632902
   9.32938926 14.37219961 10.45189795
   5.71709332 11.87720376  7.91249741
   7.29826932  7.58329756  9.92688859
   9.49267817 10.58787004  9.10861924
   3.26254231  8.84268607  9.46104865
  13.88920341 12.64839014  9.47364424
  10.98005707 15.61013128 11.93160111
   2.86978924  5.89893084 16.48638569
   1.75611523 12.01395639 17.38441989
   5.70613961  7.05412636 18.34481962
   5.78014980 14.79223128 18.00797320
  13.77746108  7.54827421 19.34487241
  14.30370358  9.00620388 18.42075121
  12.50174701 11.95087689 21.73430143
  11.41706602 10.53648069 21.85584926
  11.04721800 11.85572055 20.71060459
  13.13949732 11.28387112 19.39493362
  14.74749750  9.92977303 20.70677639
  13.40782969  8.95345276 21.38222823
   8.63740362 11.74899635 11.80179838
   8.11940335  9.13371715 11.30144811
  20.17125882 10.25815508 18.72239990
   8.16062498 17.38377808 14.27600955
   0.77749522 16.89277455 14.20914236
  14.89790566  1.42919560 13.15609244
   1.60709516  0.94711408 10.62190669
  10.57955331  2.34782959 11.30707087
  18.86679123  3.87160553 12.98914499
  22.80331846  3.29452444 16.09147795
   6.43261122  5.42138248 12.05751853
  13.02497128 14.04561294 11.87575437
   9.15861096 17.63928221 16.67306653
   4.15590840  6.34186119 10.89510594
  20.29010805 12.40990253 17.14182122
  20.26706432 17.52644236 12.55556607
   7.04790320 13.78911669 12.31057251
   9.87045805  4.73421333 10.20482654
  18.99182953  8.42601593 13.98721489
  23.03124494  1.31129712 14.00980184
  11.93461039  8.42040071 16.97789858
   0.80854198 16.67059137 11.54385891
  22.54593219  5.49427402  9.44298747
   1.63005096  6.09065222 10.11814055
   4.87647100 13.20393591 10.62861051
   0.91072893  7.59464512 13.41772355
   5.60766186  5.19598650 15.80058137
   9.31845273  3.55241921 17.34323989
  10.63471518 10.21530394 15.60119356
  21.30960080 13.57502189 14.98840206
  20.34739459  1.95787901 11.88993046
  13.40476402 12.09287863 10.11168720
   3.33439013  2.88355087 10.10739962
   8.20433800 13.88303862 16.30719085
  21.32759690 15.31330727 12.98949491
   1.43600223  9.72877939 11.88926245
  16.58313365 10.06030463 11.28987623
   1.76725442 14.80154965 12.98450890
  16.39878711 14.99633320 11.63069310
  17.09603344  0.89070709 14.59756096
  21.53564248  5.47570508 17.00233917
  17.21685533 15.44986888 16.47733424
  14.63491423  9.55703168 13.07549710
  13.03010146 11.41099800 12.56123752
   9.96769184  4.49200663 14.93927876
  22.90303759 13.19667544 12.81787194
  15.32219967 10.77796614 17.01485988
   9.28642306 13.54426631 13.84872735
  14.10975474  9.38073831 10.36813464
  16.87938261 11.42552427 14.97473609
   3.46956231  6.63099630 16.71261764
   1.55028467  9.93364713 14.57482384
  19.16221697 16.02828730 14.41709182
  19.38959778  6.44001838 12.14868300
  12.35733647  5.36600429 14.27701737
  17.26242919  9.04120273 16.01851722
  13.05025009  3.12466491 10.61647095
  18.86866258  4.64651294 10.30420244
   5.55892333 17.27408272 13.65458756
  16.22170578 14.05241561 14.56402513
  21.62028470 17.21197257 14.86401962
  12.30818899  5.75858696 10.71452528
  10.94780761 17.97035546 14.69531913
  19.61436672  1.71868791 14.51069445
  12.59301152  2.10962891 13.07168996
   8.19848185  3.38158105 11.81890631
   0.27532438 17.44013032  9.01248080
  10.65044361 10.76125540 18.12036612
  15.33358375 16.76934745 10.19493214
   1.78612593 12.43164436 11.71794928
  10.66528815  7.33377601 14.88147507
  16.83785811 12.69249221 10.20446890
  10.56136214 12.79934506 16.11282653
  17.61819454 12.85383870 12.80442605
  18.24701326  2.19293914 16.68713506
  23.25384464  5.58158513 12.05458163
  12.56829680  9.23369162 14.38763852
  19.12182067  9.04361594 11.38355200
   5.53216975  2.64905579 16.27776655
   4.76497818 15.05333538 12.64952801
   5.61331393 10.13290404 14.05102232
   1.43289076 11.33173077 16.77574002
   1.07865368 10.91526713  9.52151395
  18.74922122 17.73373699 16.27745835
  12.59506368  0.50191281 10.87439573
  14.19062224  5.65207007 16.25737407
  20.16990973  0.07395004  9.92550906
   2.22199659  2.70047811 12.55674536
   4.01549679  3.70727281 14.27384490
  15.00637423 12.76530096 12.22697399
  10.22576747  7.42551173 10.38808912
  13.43757206  1.05528421 15.35253895
   3.54535369 10.75328740 10.45651017
   6.26813510 10.91510113 10.54651395
  10.30702050  5.83862960 12.64390410
   5.57211440  2.87241773 11.55719116
   1.71710152  2.70298540 15.11962640
  19.78542818  9.88368590 16.11256571
  14.54261459  5.07285683 11.04652184
  14.10921452 16.15556596 12.56053950
   0.73477264  3.53889327 10.45741115
  14.23462210  3.53069966 14.72262993
   3.10901351 17.00414686 12.89022683
   1.87010149  5.07480394 13.76891284
   8.71194991  1.91374230 15.30634635
   1.55212604 12.61881093 14.40009168
  15.60335581  7.52728779 11.56015827
  18.72341596 13.22527127 15.16608538
  16.47777184 17.34580083 12.64014391
  14.05909956 11.54205869 14.83716229
  16.92262720  5.32192920 12.14235921
  22.88050033  5.69585120 14.70892063
   3.70210131 11.41310164 15.34324333
  14.82716522  5.92171361 13.65139239
  19.22797491  7.20283556 16.29693493
  22.44155659  0.49367766 11.20910044
   6.60411748  3.54202439 13.94297861
   5.83544193  8.02830396 12.39472924
   6.37573265 15.40753980 15.28682319
   4.76813504 12.42343385 13.08920785
   3.44435051  8.62697504 13.24126574
   5.25888660  7.67512681 14.96957579
  21.33745138  8.20429214 12.73515651
  20.36286723 12.76750071 12.47800922
  17.28034963  1.68227812 11.96927179
   5.20160188 16.84878525 10.96698378
   5.95672997  7.30381432 17.44213234
  14.77054219 16.00765602 15.94552103
   9.60385771 14.29878657 11.38342242
  21.48621551  3.55245637 13.66334053
   3.10309823  8.03742301  8.93260776
   3.63220806  5.50021683  8.34890949
   8.73253334  2.37219755  9.35415932
   0.83056488  5.30793541 17.01612670
  13.40739699  4.65476936  8.60535697
   5.74829664 13.97752215 17.48147846
   4.85490080 11.74990154  8.34376522
   6.44687148  7.10699146  9.87629901
   8.55333550 10.82900896  9.20004704
   5.29986877  1.01806602  9.62744117
   5.64688233  3.55318002  8.85384768
  11.73544815 16.16960912 12.22767567
  12.87796613 15.00064595 14.36447179
  12.76289337 11.71004920 16.99405878
  11.20452134  2.23171326 16.03184177
   6.13221128 12.59304608 15.29657266
  10.35280632 15.37746901 15.62675800
  17.92969133 11.17936091 17.47041379
  19.79072181 15.08153474 16.73821035
  14.98487946 13.41219676 16.70858573
   0.18425139  0.60309428 16.21041069
   6.64663938  0.05004037 15.96311136
  11.77492647 17.62605471 16.90578476
  10.76270679  8.26253968 19.94462129
   1.94841153 10.98908596 10.92575188
   9.57147031 13.90065104 15.43804679
  19.70678074  7.99967650 12.57708649
   0.40008717 17.94875972 10.58159830
   0.34415087  5.14987929 10.51358498
   0.22452682  2.07864612 15.38669358
  14.28666668 11.93246348 16.40147728
   5.00973922  8.63015250 13.70096704
  21.42278905 13.69169878 13.34099278
  12.18741762  2.00159257 11.45195358
   9.80059342  3.08722686 15.84770021
   1.95373172  2.52197018 10.94101594
  16.43233932  0.81266960 13.10088356
  15.56990047 16.27354966 11.76083937
  15.21965321  9.13359373 11.56390395
   4.64622068 16.53530673 12.47363180
   5.03985976  6.66378476 16.23540116
  15.77708732 14.74402956 15.98660591
   5.06891211 11.63263874 14.48086750
   8.63383069 13.32142384 12.34509184
  18.67255094 16.10021550 16.00680397
  20.59206280 16.52924080 13.76121364
  13.51944598 10.43281630 13.77556951
  13.80768961  2.08589791 14.11976410
  20.08975493  2.75647992 13.31199648
  19.56967207 10.94833283 17.36496535
   3.13099191  6.52942423  9.59392828
  18.51026388  5.07284540 11.87902451
   9.34522920  3.21642612 10.64589911
  20.04994525 13.59838747 16.03683849
   6.62066393 16.94752115 14.78143173
   0.54020935  5.98811771 13.50205012
  13.45117902 12.60314055 11.70943634
   5.39023881 13.63805192 12.15046292
  13.90652325  5.13141046 14.73021604
  22.84761358  4.93872759 16.19943486
  20.81044864  0.46044249 11.40392910
   2.45438182  3.53903929 13.92101800
   1.12715225 13.28353886 12.97472440
   5.43280321  3.74364261 15.08359953
  13.14328356  4.67138795 10.24864117
  11.15420170 11.39207251 16.67364981
   6.58283574 13.97236432 16.07317363
   4.88127424 11.65920103  9.99508876
  17.34536718 12.87659360 14.40644349
  23.09183389 17.94654098 14.79606229
  16.46058793 13.35205634 11.67438144
  18.44918868  1.07658519 15.50310727
  10.68289909  5.95194918 11.00303640
  10.51171061 16.98422397 15.98982920
  11.89964591  0.75726772 15.76296506
   5.71814202  6.71222076 11.31647527
  15.41693082  5.98004644 12.10686792
  10.79491927  5.76764743 14.21780584
   7.89661487 10.69048858 10.72869482
  18.82065231  8.64133677 15.58944421
   1.62029077 16.28843974 12.91760565
   4.96103075  2.61769098 10.04353415
   1.83153245  8.95161914 13.29886860
  13.05343995 15.44545689 12.76234739
  16.83390276 10.59455806 16.39054572
   6.71066321  3.80730338 12.34244318
   2.05966210 11.33072824 15.26438437
   8.26236623  0.36338450 15.56143533
  11.40974422  8.73027927 15.43919395
  11.60527575  9.19076256 18.77020056



--------------------------------------------------------------------------------------------------------


 k-point  1 :   0.0000 0.0000 0.0000  plane waves:  289505
 k-point  2 :   0.3333 0.0000 0.0000  plane waves:  289422
 k-point  3 :   0.0000 0.3333 0.0000  plane waves:  289550
 k-point  4 :   0.3333 0.3333 0.0000  plane waves:  289551
 k-point  5 :  -0.3333 0.3333 0.0000  plane waves:  289551

 maximum and minimum number of plane-waves per node :     72451    72309

 maximum number of plane-waves:    289551
 maximum index in each direction: 
   IXMAX=   43   IYMAX=   33   IZMAX=   49
   IXMIN=  -43   IYMIN=  -33   IZMIN=  -49


 real space projection operators:
  total allocation   :      13782.08 KBytes
  max/ min on nodes  :       3450.74       3441.98


 parallel 3D FFT for wavefunctions:
    minimum data exchange during FFTs selected (reduces bandwidth)
 parallel 3D FFT for charge:
    minimum data exchange during FFTs selected (reduces bandwidth)


 total amount of memory used by VASP MPI-rank0   697365. kBytes
=======================================================================

   base      :      30000. kBytes
   nonlr-proj:      16929. kBytes
   fftplans  :      30982. kBytes
   grid      :      57864. kBytes
   one-center:       1073. kBytes
   wavefun   :     560517. kBytes

     INWAV:  cpu time    0.0001: real time    0.0001
 Broyden mixing: mesh for mixing (old mesh)
   NGX = 85   NGY = 67   NGZ = 99
  (NGX  =256   NGY  =200   NGZ  =300)
  gives a total of 563805 points

 initial charge density was supplied:
 charge density of overlapping atoms calculated
 number of electron    1258.0000000 magnetization 
 keeping initial charge density in first step


--------------------------------------------------------------------------------------------------------


 Maximum index for non-local projection operator          643
 Maximum index for augmentation-charges          538 (set IRDMAX)


--------------------------------------------------------------------------------------------------------


 First call to EWALD:  gamma=   0.079
 Maximum number of real-space cells 3x 3x 2
 Maximum number of reciprocal cells 3x 2x 3

    FEWALD:  cpu time    0.0257: real time    0.0258


--------------------------------------- Iteration      1(   1)  ---------------------------------------


    POTLOK:  cpu time    0.2790: real time    0.2828
    SETDIJ:  cpu time    0.5740: real time    0.5757
     EDDAV:  cpu time   80.8615: real time   81.1409
       DOS:  cpu time    0.0020: real time    0.0020
    --------------------------------------------
      LOOP:  cpu time   81.7164: real time   82.0013

 eigenvalue-minimisations  :  8584
 total energy-change (2. order) : 0.1286030E+05  (-0.4943887E+05)
 number of electron    1258.0000000 magnetization 
 augmentation part     1258.0000000 magnetization 

 DIPCOR: dipole corrections for dipol
 direction  3 min pos    70,
 dipolmoment           0.000000      0.000000      1.152733 electrons x Angstroem
 Tr[quadrupol]    -95468.652408

 energy correction for charged system         0.000000 eV
 dipol+quadrupol energy correction           -0.010804 eV
 added-field ion interaction        143.203376 eV  (added to PSCEN)


 Free energy of the ion-electron system (eV)
  ---------------------------------------------------
  alpha Z        PSCENC =       633.35552525
  Ewald energy   TEWEN  =    309217.08069039
  -Hartree energ DENC   =   -371438.68011002
  -exchange      EXHF   =         0.00000000
  -V(xc)+E(xc)   XCENC  =      3778.93958346
  PAW double counting   =     59955.48764796   -58973.29898038
  entropy T*S    EENTRO =        -1.66840241
  eigenvalues    EBANDS =     -5018.15404635
  atomic energy  EATOM  =     74707.24229009
  Solvation  Ediel_sol  =         0.00000000
  ---------------------------------------------------
  free energy    TOTEN  =     12860.30419798 eV

  energy without entropy =    12861.97260040  energy(sigma->0) =    12861.13839919


--------------------------------------------------------------------------------------------------------




--------------------------------------- Iteration      1(   2)  ---------------------------------------


     EDDAV:  cpu time   97.0390: real time   97.3785
       DOS:  cpu time    0.0011: real time    0.0011
    --------------------------------------------
      LOOP:  cpu time   97.0401: real time   97.3797

 eigenvalue-minimisations  : 10752
 total energy-change (2. order) :-0.1223798E+05  (-0.1184457E+05)
 number of electron    1258.0000000 magnetization 
 augmentation part     1258.0000000 magnetization 

 DIPCOR: dipole corrections for dipol
 direction  3 min pos    70,
 dipolmoment           0.000000      0.000000      1.152733 electrons x Angstroem
 Tr[quadrupol]    -95468.652408

 energy correction for charged system         0.000000 eV
 dipol+quadrupol energy correction           -0.010804 eV
 added-field ion interaction        143.203376 eV  (added to PSCEN)


 Free energy of the ion-electron system (eV)
  ---------------------------------------------------
  alpha Z        PSCENC =       633.35552525
  Ewald energy   TEWEN  =    309217.08069039
  -Hartree energ DENC   =   -371438.68011002
  -exchange      EXHF   =         0.00000000
  -V(xc)+E(xc)   XCENC  =      3778.93958346
  PAW double counting   =     59955.48764796   -58973.29898038
  entropy T*S    EENTRO =        -0.00000000
  eigenvalues    EBANDS =    -17257.80163980
  atomic energy  EATOM  =     74707.24229009
  Solvation  Ediel_sol  =         0.00000000
  ---------------------------------------------------
  free energy    TOTEN  =       622.32500694 eV

  energy without entropy =      622.32500694  energy(sigma->0) =      622.32500694


--------------------------------------------------------------------------------------------------------




--------------------------------------- Iteration      1(   3)  ---------------------------------------


     EDDAV:  cpu time   83.3956: real time   83.6885
       DOS:  cpu time    0.0012: real time    0.0012
    --------------------------------------------
      LOOP:  cpu time   83.3968: real time   83.6897

 eigenvalue-minimisations  :  8936
 total energy-change (2. order) :-0.2640850E+04  (-0.2631494E+04)
 number of electron    1258.0000000 magnetization 
 augmentation part     1258.0000000 magnetization 

 DIPCOR: dipole corrections for dipol
 direction  3 min pos    70,
 dipolmoment           0.000000      0.000000      1.152733 electrons x Angstroem
 Tr[quadrupol]    -95468.652408

 energy correction for charged system         0.000000 eV
 dipol+quadrupol energy correction           -0.010804 eV
 added-field ion interaction        143.203376 eV  (added to PSCEN)


 Free energy of the ion-electron system (eV)
  ---------------------------------------------------
  alpha Z        PSCENC =       633.35552525
  Ewald energy   TEWEN  =    309217.08069039
  -Hartree energ DENC   =   -371438.68011002
  -exchange      EXHF   =         0.00000000
  -V(xc)+E(xc)   XCENC  =      3778.93958346
  PAW double counting   =     59955.48764796   -58973.29898038
  entropy T*S    EENTRO =        -0.00000000
  eigenvalues    EBANDS =    -19898.65142755
  atomic energy  EATOM  =     74707.24229009
  Solvation  Ediel_sol  =         0.00000000
[...]
     18.99199      8.42591     13.98752        -0.003119     -0.000289      0.002020
     23.03083      1.31501     14.00992         0.006121      0.004402      0.001133
     11.93226      8.41660     16.97915        -0.017644     -0.018575     -0.010962
      0.80854     16.67059     11.54386        -0.104916      0.444034     -0.280793
     22.54593      5.49427      9.44299         0.187274     -0.184798      0.419294
      1.63005      6.09065     10.11814         0.290853     -0.134117     -0.021348
      4.87647     13.20394     10.62861         0.420939     -0.163389      0.427944
      0.91073      7.59465     13.41772         0.457034      0.024423      0.172738
      5.60898      5.19462     15.80153         0.000348     -0.002490     -0.003153
      9.31710      3.55178     17.34392         0.004871     -0.010711     -0.007661
     10.63677     10.21757     15.60191         0.007055     -0.020760     -0.007615
     21.30909     13.57511     14.98818        -0.004704      0.006460      0.003772
     20.34739      1.95788     11.88993        -0.081958     -0.037291      0.441094
     13.40476     12.09288     10.11169        -0.262078      0.190800      0.102715
      3.33439      2.88355     10.10740        -0.033148     -0.058299      0.195809
      8.20312     13.88110     16.30651        -0.007443     -0.018124      0.012249
     21.32760     15.31331     12.98949         0.324913     -1.496765      0.192219
      1.43600      9.72878     11.88926         0.541366      0.265005      0.082006
     16.58313     10.06030     11.28988        -0.106372     -0.555079     -0.037280
      1.76725     14.80155     12.98451        -0.013416     -6.393493      0.320293
     16.39879     14.99633     11.63069         1.820478     -3.819591     -0.200191
     17.09603      0.89078     14.59704        -0.006887      0.007034     -0.001643
     21.53224      5.47432     17.00320        -0.008143     -0.018041      0.010222
     17.21676     15.45449     16.47632        -0.010019      0.021361     -0.001694
     14.63491      9.55703     13.07550         1.923262     -1.242587     -1.287934
     13.03010     11.41100     12.56124        -3.570652     -2.901989      1.867900
      9.96803      4.49248     14.93837         0.008422      0.002937     -0.002593
     22.90304     13.19668     12.81787         0.401427      0.309292      0.221301
     15.32311     10.77852     17.01725         0.013656      0.003957      0.003019
      9.28470     13.54250     13.84883        -0.002626     -0.011728      0.007156
     14.10975      9.38074     10.36813         0.281093     -0.125381      0.372871
     16.87773     11.42525     14.97409        -0.018128     -0.000020     -0.000136
      3.46798      6.63072     16.71020         0.002970      0.018245     -0.019703
      1.54924      9.93551     14.57332        -0.004238      0.010060     -0.002472
     19.16960     16.02777     14.42179        -0.009091      0.001957      0.021363
     19.38960      6.44002     12.14868        -0.136544      0.260696      0.196839
     12.35985      5.37115     14.28185         0.014371      0.025880      0.004876
     17.26276      9.04086     16.02081        -0.001316     -0.005081      0.014007
     13.05025      3.12466     10.61647        -1.374258     -1.822055      0.525792
     18.86866      4.64651     10.30420        -0.043445     -0.023076      0.762964
      5.55892     17.27408     13.65459        -0.806479      0.219892     -0.956334
     16.22419     14.05630     14.56231         0.008778     -0.002511      0.003986
     21.62271     17.21330     14.86464         0.014496     -0.003174      0.009166
     12.30819      5.75859     10.71453        -7.866734      6.654652      3.185582
     10.94788     17.96938     14.69149         0.014759     -0.011167     -0.004789
     19.61346      1.71766     14.51033        -0.001680      0.006377      0.002746
     12.59301      2.10963     13.07169        -2.067625      0.600484     -1.034451
      8.19848      3.38158     11.81891        -0.117281      0.158925      0.039586
      0.27532     17.44013      9.01248        -0.250808      0.115994      0.330104
     10.64968     10.75996     18.12182        -0.000984     -0.007396      0.005886
     15.33358     16.76935     10.19493        -0.563346      0.123882      0.631397
      1.78613     12.43164     11.71795         0.022498     -0.125155      0.102387
     10.66132      7.33389     14.88003        -0.006257      0.019398     -0.000987
     16.83786     12.69249     10.20447        -0.046974      0.280774      0.493346
     10.56097     12.79930     16.11250         0.002947     -0.006756      0.005263
     17.61819     12.85384     12.80443        -0.344545      0.235358     -1.083949
     18.24214      2.19355     16.68854        -0.013189      0.017354     -0.017446
     23.25384      5.58159     12.05458         0.269761      0.007394     -0.003436
     12.56750      9.23139     14.38901         0.005200     -0.004501      0.007912
     19.12182      9.04362     11.38355         0.334854     -0.394326      0.462276
      5.53143      2.64748     16.27881        -0.004547     -0.000866      0.000816
      4.76498     15.05334     12.64953         0.591301     -6.676182      0.325427
      5.61550     10.13253     14.05230         0.005256     -0.005193      0.008131
      1.43360     11.33200     16.77480         0.006814     -0.007401     -0.010356
      1.07865     10.91527      9.52151         0.187175      0.220035      0.442480
     18.74855     17.73462     16.27937         0.003590      0.022746      0.015645
     12.59506      0.50191     10.87440        -0.220546      0.378660      0.166468
     14.19556      5.65295     16.25934         0.017384      0.004868      0.001168
     20.16991      0.07395      9.92551        -0.067694      0.006235      0.302609
      2.22200      2.70048     12.55675        -0.024424     -0.023874     -0.782965
      4.01611      3.70459     14.27345         0.000222     -0.005619      0.005217
     15.00637     12.76530     12.22697         2.663602      0.224171     -0.646093
     10.22577      7.42551     10.38809         0.258389     -0.700182      0.516669
     13.43669      1.05859     15.35506        -0.011180      0.002096      0.016452
      3.54535     10.75329     10.45651        -0.005657      0.700206      0.084388
      6.26814     10.91510     10.54651         0.152420      0.310996      0.040010
     10.30702      5.83863     12.64390         0.398766      0.141069     -0.569899
      5.57211      2.87242     11.55719         0.328885      0.283666     -0.347896
      1.71577      2.70495     15.12066        -0.003820      0.009841      0.006138
     19.78338      9.88316     16.11310        -0.013711     -0.002746      0.002457
     14.54261      5.07286     11.04652         1.394883      0.655428      0.851097
     14.10921     16.15557     12.56054        23.541293     14.638318     -4.513814
      0.73477      3.53889     10.45741         0.415609      0.157648      0.274671
     14.23673      3.53130     14.72334         0.001970      0.001281      0.005991
      3.10901     17.00415     12.89023        -0.000122     -0.146115     -0.322160
      1.87248      5.07589     13.76818         0.002267      0.013372     -0.010887
      8.71507      1.91515     15.30185         0.011392     -0.001438     -0.036861
      1.55140     12.62023     14.39932        -0.000960      0.004801      0.009846
     15.60336      7.52729     11.56016        -0.325282      0.200250      0.458316
     18.72294     13.22518     15.16538         0.004030     -0.003759      0.000246
     16.47777     17.34580     12.64014        -0.772459      0.366229     -0.201445
     14.05818     11.53671     14.83884         0.001718     -0.018348      0.001236
     16.92263      5.32193     12.14236         0.243676      0.054651     -0.018778
     22.88192      5.69820     14.71111        -0.005712      0.002956      0.005437
      3.70301     11.41409     15.34171        -0.006399      0.000614      0.003871
     14.82717      5.92171     13.65139         0.418151      0.243615     -0.750752
     19.22900      7.20007     16.29487         0.006469     -0.005253     -0.020676
     22.44156      0.49368     11.20910        -0.301531     -0.373354     -0.323610
      6.60471      3.54108     13.94374         0.006951     -0.006321     -0.013091
      5.83544      8.02830     12.39473        -0.034825     -0.698159     -0.621865
      6.37337     15.40892     15.29349        -0.009794      0.018732      0.024640
      4.76814     12.42343     13.08921         0.228462      0.569350     -0.392677
      3.44435      8.62698     13.24127        -0.316587      0.093421      0.194881
      5.26349      7.67113     14.96844         0.005702     -0.023203      0.014023
     21.33745      8.20429     12.73516        -0.257874     -0.136015     -0.134804
     20.36287     12.76750     12.47801         0.318142      0.276973      0.451416
     17.28035      1.68228     11.96927        -0.174588     -0.269614      0.480189
      5.20160     16.84879     10.96698        -0.332068      0.367538      0.370572
      5.96021      7.29791     17.43995         0.013379     -0.027541     -0.014892
     14.76935     16.00901     15.94701        -0.010119     -0.000796      0.003519
      9.60386     14.29879     11.38342        -0.515724     -0.399971      0.278623
     21.48622      3.55246     13.66334        -0.758010     -0.049251     -0.112981
      3.10310      8.03742      8.93261         0.095958     -0.241581      0.318005
      3.63221      5.50022      8.34891        -0.161848      0.545100      0.361133
      8.73253      2.37220      9.35416         0.191407      0.606136      0.346801
      0.82976      5.30565     17.01813        -0.012634     -0.026954      0.006698
     13.40740      4.65477      8.60536        -0.202095      0.162818      0.220407
      5.74571     13.97452     17.47932        -0.020305     -0.020295     -0.008877
      4.85490     11.74990      8.34377         0.076450     -0.129747      0.506061
      6.44687      7.10699      9.87630         0.020722      0.046995      0.705456
      8.55334     10.82901      9.20005        -0.084818     -0.023782      0.750148
      5.29987      1.01807      9.62744        -0.072693      0.791751      0.118461
      5.64688      3.55318      8.85385        -0.375929     -0.058452      0.455827
     11.73545     16.16961     12.22768        -2.213570      1.039157     -0.689142
     12.87730     15.00244     14.36579         0.004987      0.001031      0.007208
     12.76245     11.70791     16.99585         0.001748     -0.007458      0.004853
     11.20135      2.22845     16.03194        -0.005459     -0.010070      0.002566
      6.13340     12.59410     15.28879         0.003546      0.009076      0.004270
     10.35021     15.37601     15.62597        -0.016982     -0.013451     -0.007410
     17.92919     11.18273     17.46771        -0.005997      0.004583     -0.019821
     19.78821     15.07921     16.74307        -0.010672     -0.009167      0.009864
     14.98913     13.41257     16.70611        -0.001948     -0.018300     -0.008835
      0.18647      0.60189     16.20966         0.014828      0.000987     -0.005811
      6.64802      0.05276     15.96184        -0.001497      0.010777     -0.019185
     11.77390     17.62205     16.90498         0.014760     -0.016294     -0.016045
     10.76313      8.26116     19.94500         0.000254     -0.009530      0.019981
      1.94841     10.98909     10.92575        -0.060566     -0.131640      0.037939
      9.57099     13.89874     15.43794        -0.005996     -0.006566     -0.006449
     19.70678      7.99968     12.57709         0.138110     -0.190642     -0.281967
      0.40009     17.94876     10.58160         0.097589     -0.136195      0.306634
      0.34415      5.14988     10.51358         0.041613      0.031289      0.057907
      0.22378      2.07966     15.38826         0.003811     -0.000505      0.002916
     14.28605     11.93146     16.40248         0.008525      0.007421      0.007374
      5.01051      8.62956     13.70124        -0.000943      0.000174     -0.004168
     21.42279     13.69170     13.34099         0.261489      0.236845     -0.647781
     12.18742      2.00159     11.45195         0.160006     -0.062978      0.476914
      9.80023      3.08834     15.84723         0.000031      0.004050     -0.001050
      1.95373      2.52197     10.94102         0.076703     -0.116185      0.063239
     16.43234      0.81267     13.10088         0.095047     -0.072827     -0.309611
     15.56990     16.27355     11.76084        -0.473232      4.555458     -0.224886
     15.21965      9.13359     11.56390         0.072949      0.062525      0.221634
      4.64622     16.53531     12.47363        -0.709358      6.165447     -0.350769
      5.03929      6.66149     16.23397         0.005881     -0.009164     -0.015038
     15.77829     14.74583     15.98618         0.013238      0.020451     -0.010859
      5.06865     11.63162     14.47964        -0.001197     -0.009705     -0.006907
      8.63383     13.32142     12.34509        -0.378809      0.016550     -0.117074
     18.67408     16.10148     16.00905         0.003543      0.006574      0.009261
     20.59552     16.53086     13.76230         0.010079     -0.001093     -0.007120
     13.51783     10.43087     13.77558        -0.000111      0.008653     -0.002187
     13.80817      2.08719     14.12068        -0.000219      0.005089     -0.002823
     20.08975      2.75648     13.31200        -0.162845      0.004569     -0.439446
     19.56744     10.95027     17.36341        -0.006691      0.006815     -0.002187
      3.13099      6.52942      9.59393        -0.096860     -0.110470      0.045495
     18.51026      5.07285     11.87902        -0.266875      0.092109      0.078973
      9.34523      3.21643     10.64590        -0.141181     -0.313777      0.230843
     20.04913     13.59904     16.03630        -0.006811      0.001951      0.000272
      6.62011     16.94770     14.78182         0.012291      0.007111      0.002797
      0.54021      5.98812     13.50205         0.269870      0.185911     -0.382684
     13.45118     12.60314     11.70944         3.918133     -0.847539     -2.488943
      5.39024     13.63805     12.15046         0.134192     -0.587577      0.008956
     13.90753      5.13268     14.73234         0.004255      0.006959     -0.000125
     22.84573      4.93880     16.20080        -0.002312      0.000115      0.001630
     20.81045      0.46044     11.40393         0.023920      0.046991      0.107426
      2.45415      3.53919     13.92091         0.002203     -0.003528      0.000654
      1.12715     13.28354     12.97472        -0.164061     -0.587693     -0.254332
      5.43310      3.74198     15.08363        -0.004448     -0.013650     -0.001979
     13.14328      4.67139     10.24864         8.337427     -5.357957     -3.584021
     11.15333     11.39242     16.67534         0.004374      0.002269      0.019996
      6.58243     13.97054     16.07211        -0.004145      0.000894     -0.003037
      4.88127     11.65920      9.99509         0.071261     -0.063812      0.016941
     17.34411     12.87588     14.40643        -0.005510      0.005978     -0.004638
     23.09325     17.94796     14.79442         0.013908      0.009621      0.001008
     16.46059     13.35206     11.67438        -0.703815     -1.359370      0.359535
     18.44835      1.07772     15.50431        -0.002400     -0.004256      0.007793
     10.68290      5.95195     11.00304        -1.145420      0.542583      0.448615
     10.51114     16.98233     15.98737        -0.009104     -0.002161     -0.021108
     11.89886      0.75569     15.76231        -0.001924     -0.008473     -0.008106
      5.71814      6.71222     11.31648         0.025085     -0.128006     -0.105329
     15.41693      5.98005     12.10687        -0.140678     -0.471829     -0.851338
     10.79485      5.76833     14.21808        -0.006991      0.000219     -0.004295
      7.89661     10.69049     10.72869        -0.132148     -0.076283     -0.056426
     18.81965      8.63986     15.58986         0.006729     -0.003107      0.002677
      1.62029     16.28844     12.91761        -0.350096      6.433288     -0.525182
      4.96103      2.61769     10.04353        -0.072775     -0.040644      0.060981
      1.83153      8.95162     13.29887         0.018828     -0.131569     -0.298794
     13.05344     15.44546     12.76235       -22.324172    -15.849191      4.723230
     16.83319     10.59477     16.39014        -0.005186      0.006811      0.001727
      6.71066      3.80730     12.34244        -0.216880      0.021680     -0.762397
      2.05951     11.33134     15.26348         0.001967      0.002777     -0.002317
      8.26381      0.36496     15.55806         0.005891      0.011385     -0.024756
     11.40829      8.72963     15.43988        -0.010363     -0.006590      0.004014
     11.60618      9.18881     18.77019         0.009094      0.013286     -0.017632
 -----------------------------------------------------------------------------------
    total drift:                                0.181194      0.147642      0.094642


--------------------------------------------------------------------------------------------------------



  FREE ENERGIE OF THE ION-ELECTRON SYSTEM (eV)
  ---------------------------------------------------
  free  energy   TOTEN  =     -1887.20341061 eV

  energy  without entropy=    -1887.20341061  energy(sigma->0) =    -1887.20341061

 d Force = 0.1504794E-02[ 0.269E-03, 0.274E-02]  d Energy = 0.1435591E-02 0.692E-04
 d Force = 0.3095016E+00[ 0.304E+00, 0.315E+00]  d Ewald  = 0.3095049E+00-0.330E-05


--------------------------------------------------------------------------------------------------------


    POTLOK:  cpu time    0.8299: real time    0.8322


--------------------------------------------------------------------------------------------------------


 stress matrix after NEB project (eV)
    -32.72509      0.14775      0.28838
      0.14775    -33.32943     -0.16526
      0.28838     -0.16526    -25.43312
  FORCES: max atom, RMS     0.038608    0.011735
  FORCE total and by dimension    0.194949    0.036861
  Stress total and by dimension   53.187318   33.329433
 Quasi-Newton relaxation of ions (Broydens 2nd method)
  g(Force)  = 0.183E-02   g(Stress)= 0.000E+00

 retain information from N=  1 steps
 eigenvalues of (default step * inverse Hessian matrix)
  average eigenvalue of G=   0.2091
 eigenvalue spectrum of G is  0.2091


--------------------------------------------------------------------------------------------------------


  
 reached required accuracy - stopping structural energy minimisation
     LOOP+:  cpu time  179.1974: real time  179.8689
    4ORBIT:  cpu time    0.0000: real time    0.0000

 total amount of memory used by VASP MPI-rank0   697365. kBytes
=======================================================================

   base      :      30000. kBytes
   nonlr-proj:      16929. kBytes
   fftplans  :      30982. kBytes
   grid      :      57864. kBytes
   one-center:       1073. kBytes
   wavefun   :     560517. kBytes

  
  
 General timing and accounting informations for this job:
 ========================================================
  
                  Total CPU time used (sec):     2788.894
                            User time (sec):     2783.862
                          System time (sec):        5.032
                         Elapsed time (sec):     2799.689
  
                   Maximum memory used (kb):      998460.
                   Average memory used (kb):           0.
  
                          Minor page faults:      6815121
                          Major page faults:          226
                 Voluntary context switches:         6117
