 vasp.5.4.4.18Apr17-6-g9f103f2a35 (build Oct 20 2021 08:33:53) complex           
 executed on             LinuxGNU date 2025.03.08  14:13:46
 running on   32 total cores
 distrk:  each k-point on   32 cores,    1 groups
 distr:  one band on NCORES_PER_BAND=   4 cores,    8 groups


--------------------------------------------------------------------------------------------------------


 INCAR:
 POTCAR:    PAW_PBE C 08Apr2002                   
 POTCAR:    PAW_PBE H 15Jun2001                   
 POTCAR:    PAW_PBE O 08Apr2002                   
 POTCAR:    PAW_PBE Si 05Jan2001                  
 POTCAR:    PAW_PBE W 08Apr2002                   
 POTCAR:    PAW_PBE C 08Apr2002                   
   VRHFIN =C: s2p2                                                              
   LEXCH  = PE                                                                  
   EATOM  =   147.1560 eV,   10.8157 Ry                                         
                                                                                
   TITEL  = PAW_PBE C 08Apr2002                                                 
   LULTRA =        F    use ultrasoft PP ?                                      
   IUNSCR =        1    unscreen: 0-lin 1-nonlin 2-no                           
   RPACOR =    1.200    partial core radius                                     
   POMASS =   12.011; ZVAL   =    4.000    mass and valenz                      
   RCORE  =    1.500    outmost cutoff radius                                   
   RWIGS  =    1.630; RWIGS  =    0.863    wigner-seitz radius (au A)           
   ENMAX  =  400.000; ENMIN  =  300.000 eV                                      
   ICORE  =        2    local potential                                         
   LCOR   =        T    correct aug charges                                     
   LPAW   =        T    paw PP                                                  
   EAUG   =  644.873                                                            
   DEXC   =    0.000                                                            
   RMAX   =    1.529    core radius for proj-oper                               
   RAUG   =    1.300    factor for augmentation sphere                          
   RDEP   =    1.501    radius for radial grids                                 
   RDEPT  =    1.300    core radius for aug-charge                              
                                                                                
   Atomic configuration                                                         
    4 entries                                                                   
     n  l   j            E        occ.                                          
     1  0  0.50      -273.3789   2.0000                                         
     2  0  0.50       -13.7508   2.0000                                         
     2  1  0.50        -5.2854   2.0000                                         
     3  2  1.50        -5.4423   0.0000                                         
   Description                                                                  
     l       E           TYP  RCUT    TYP  RCUT                                 
     0    -13.7508458     23  1.200                                             
     0     -8.2022199     23  1.200                                             
     1     -5.2854383     23  1.500                                             
     1     34.0145650     23  1.500                                             
     2     -5.4423304      7  1.500                                             
  local pseudopotential read in
  partial core-charges read in
  partial kinetic energy density read in
  atomic valenz-charges read in
  non local Contribution for L=           0  read in
    real space projection operators read in
  non local Contribution for L=           0  read in
    real space projection operators read in
  non local Contribution for L=           1  read in
    real space projection operators read in
  non local Contribution for L=           1  read in
    real space projection operators read in
    PAW grid and wavefunctions read in

   number of l-projection  operators is LMAX  =           4
   number of lm-projection operators is LMMAX =           8

 POTCAR:    PAW_PBE H 15Jun2001                   
   VRHFIN =H: ultrasoft test                                                    
   LEXCH  = PE                                                                  
   EATOM  =    12.4884 eV,    0.9179 Ry                                         
                                                                                
   TITEL  = PAW_PBE H 15Jun2001                                                 
   LULTRA =        F    use ultrasoft PP ?                                      
   IUNSCR =        0    unscreen: 0-lin 1-nonlin 2-no                           
   RPACOR =    0.000    partial core radius                                     
   POMASS =    1.000; ZVAL   =    1.000    mass and valenz                      
   RCORE  =    1.100    outmost cutoff radius                                   
   RWIGS  =    0.700; RWIGS  =    0.370    wigner-seitz radius (au A)           
   ENMAX  =  250.000; ENMIN  =  200.000 eV                                      
   RCLOC  =    0.701    cutoff for local pot                                    
   LCOR   =        T    correct aug charges                                     
   LPAW   =        T    paw PP                                                  
   EAUG   =  400.000                                                            
   RMAX   =    1.123    core radius for proj-oper                               
   RAUG   =    1.200    factor for augmentation sphere                          
   RDEP   =    1.112    radius for radial grids                                 
   RDEPT  =    0.926    core radius for aug-charge                              
                                                                                
   Atomic configuration                                                         
    2 entries                                                                   
     n  l   j            E        occ.                                          
     1  0  0.50        -6.4927   1.0000                                         
     2  1  0.50        -3.4015   0.0000                                         
   Description                                                                  
     l       E           TYP  RCUT    TYP  RCUT                                 
     0     -6.4927494     23  1.100                                             
     0      6.8029130     23  1.100                                             
     1     -4.0817478     23  1.100                                             
  local pseudopotential read in
  atomic valenz-charges read in
  non local Contribution for L=           0  read in
    real space projection operators read in
  non local Contribution for L=           0  read in
    real space projection operators read in
  non local Contribution for L=           1  read in
    real space projection operators read in
    PAW grid and wavefunctions read in

   number of l-projection  operators is LMAX  =           3
   number of lm-projection operators is LMMAX =           5

 POTCAR:    PAW_PBE O 08Apr2002                   
   VRHFIN =O: s2p4                                                              
   LEXCH  = PE                                                                  
   EATOM  =   432.3788 eV,   31.7789 Ry                                         
                                                                                
   TITEL  = PAW_PBE O 08Apr2002                                                 
   LULTRA =        F    use ultrasoft PP ?                                      
   IUNSCR =        1    unscreen: 0-lin 1-nonlin 2-no                           
   RPACOR =    1.200    partial core radius                                     
   POMASS =   16.000; ZVAL   =    6.000    mass and valenz                      
   RCORE  =    1.520    outmost cutoff radius                                   
   RWIGS  =    1.550; RWIGS  =    0.820    wigner-seitz radius (au A)           
   ENMAX  =  400.000; ENMIN  =  300.000 eV                                      
   ICORE  =        2    local potential                                         
   LCOR   =        T    correct aug charges                                     
   LPAW   =        T    paw PP                                                  
   EAUG   =  605.392                                                            
   DEXC   =    0.000                                                            
   RMAX   =    1.553    core radius for proj-oper                               
   RAUG   =    1.300    factor for augmentation sphere                          
   RDEP   =    1.550    radius for radial grids                                 
   RDEPT  =    1.329    core radius for aug-charge                              
                                                                                
   Atomic configuration                                                         
    4 entries                                                                   
     n  l   j            E        occ.                                          
     1  0  0.50      -514.6923   2.0000                                         
     2  0  0.50       -23.9615   2.0000                                         
     2  1  0.50        -9.0305   4.0000                                         
     3  2  1.50        -9.5241   0.0000                                         
   Description                                                                  
     l       E           TYP  RCUT    TYP  RCUT                                 
     0    -23.9615318     23  1.200                                             
     0     -9.5240782     23  1.200                                             
     1     -9.0304911     23  1.520                                             
     1      8.1634956     23  1.520                                             
     2     -9.5240782      7  1.500                                             
  local pseudopotential read in
  partial core-charges read in
  partial kinetic energy density read in
  kinetic energy density of atom read in
  atomic valenz-charges read in
  non local Contribution for L=           0  read in
    real space projection operators read in
  non local Contribution for L=           0  read in
    real space projection operators read in
  non local Contribution for L=           1  read in
    real space projection operators read in
  non local Contribution for L=           1  read in
    real space projection operators read in
    PAW grid and wavefunctions read in

   number of l-projection  operators is LMAX  =           4
   number of lm-projection operators is LMMAX =           8

 POTCAR:    PAW_PBE Si 05Jan2001                  
   VRHFIN =Si: s2p2                                                             
   LEXCH  = PE                                                                  
   EATOM  =   103.0669 eV,    7.5752 Ry                                         
                                                                                
   TITEL  = PAW_PBE Si 05Jan2001                                                
   LULTRA =        F    use ultrasoft PP ?                                      
   IUNSCR =        1    unscreen: 0-lin 1-nonlin 2-no                           
   RPACOR =    1.500    partial core radius                                     
   POMASS =   28.085; ZVAL   =    4.000    mass and valenz                      
   RCORE  =    1.900    outmost cutoff radius                                   
   RWIGS  =    2.480; RWIGS  =    1.312    wigner-seitz radius (au A)           
   ENMAX  =  245.345; ENMIN  =  184.009 eV                                      
   ICORE  =        2    local potential                                         
   LCOR   =        T    correct aug charges                                     
   LPAW   =        T    paw PP                                                  
   EAUG   =  322.069                                                            
   DEXC   =    0.000                                                            
   RMAX   =    1.950    core radius for proj-oper                               
   RAUG   =    1.300    factor for augmentation sphere                          
   RDEP   =    1.993    radius for radial grids                                 
   RDEPT  =    1.837    core radius for aug-charge                              
                                                                                
   Atomic configuration                                                         
    6 entries                                                                   
     n  l   j            E        occ.                                          
     1  0  0.50     -1785.8828   2.0000                                         
     2  0  0.50      -139.4969   2.0000                                         
     2  1  1.50       -95.5546   6.0000                                         
     3  0  0.50       -10.8127   2.0000                                         
     3  1  0.50        -4.0811   2.0000                                         
     3  2  1.50        -4.0817   0.0000                                         
   Description                                                                  
     l       E           TYP  RCUT    TYP  RCUT                                 
     0    -10.8127223     23  1.900                                             
     0     -7.6451159     23  1.900                                             
     1     -4.0811372     23  1.900                                             
     1      2.4879257     23  1.900                                             
     2     -4.0817478      7  1.900                                             
  local pseudopotential read in
  partial core-charges read in
  partial kinetic energy density read in
  atomic valenz-charges read in
  non local Contribution for L=           0  read in
    real space projection operators read in
  non local Contribution for L=           0  read in
    real space projection operators read in
  non local Contribution for L=           1  read in
    real space projection operators read in
  non local Contribution for L=           1  read in
    real space projection operators read in
    PAW grid and wavefunctions read in

   number of l-projection  operators is LMAX  =           4
   number of lm-projection operators is LMMAX =           8

 POTCAR:    PAW_PBE W 08Apr2002                   
   VRHFIN =W : 6s5d                                                             
   LEXCH  = PE                                                                  
   EATOM  =   204.6103 eV,   15.0384 Ry                                         
                                                                                
   TITEL  = PAW_PBE W 08Apr2002                                                 
   LULTRA =        F    use ultrasoft PP ?                                      
   IUNSCR =        1    unscreen: 0-lin 1-nonlin 2-no                           
   RPACOR =    2.330    partial core radius                                     
   POMASS =  183.850; ZVAL   =    6.000    mass and valenz                      
   RCORE  =    2.750    outmost cutoff radius                                   
   RWIGS  =    2.750; RWIGS  =    1.455    wigner-seitz radius (au A)           
   ENMAX  =  223.057; ENMIN  =  167.293 eV                                      
   RCLOC  =    2.147    cutoff for local pot                                    
   LCOR   =        T    correct aug charges                                     
   LPAW   =        T    paw PP                                                  
   EAUG   =  373.438                                                            
   DEXC   =    0.000                                                            
   RMAX   =    2.801    core radius for proj-oper                               
   RAUG   =    1.300    factor for augmentation sphere                          
   RDEP   =    2.886    radius for radial grids                                 
   RDEPT  =    2.230    core radius for aug-charge                              
                                                                                
   Atomic configuration                                                         
   16 entries                                                                   
     n  l   j            E        occ.                                          
     1  0  0.50    -69465.5836   2.0000                                         
     2  0  0.50    -11986.2642   2.0000                                         
     2  1  1.50    -10479.8616   6.0000                                         
     3  0  0.50     -2759.0758   2.0000                                         
     3  1  1.50     -2313.1857   6.0000                                         
     3  2  2.50     -1801.1185  10.0000                                         
     4  0  0.50      -567.6791   2.0000                                         
     4  1  1.50      -421.4694   6.0000                                         
     4  2  2.50      -236.3473  10.0000                                         
     4  3  3.50       -31.2666  14.0000                                         
     5  0  0.50       -77.1085   2.0000                                         
     5  1  1.50       -41.3856   6.0000                                         
     5  2  2.50        -3.3185   5.0000                                         
     6  0  0.50        -5.1438   1.0000                                         
     6  1  0.50        -3.8096   0.0000                                         
     5  3  2.50        -1.3606   0.0000                                         
   Description                                                                  
     l       E           TYP  RCUT    TYP  RCUT                                 
     2     -3.3185288     23  2.500                                             
     2     -1.5965414     23  2.500                                             
     0     -5.1438054     23  2.500                                             
     0      4.9117504     23  2.500                                             
     1      2.7211652     23  2.750                                             
     1     27.2116520     23  2.750                                             
  local pseudopotential read in
  partial core-charges read in
  partial kinetic energy density read in
  atomic valenz-charges read in
  non local Contribution for L=           2  read in
    real space projection operators read in
  non local Contribution for L=           2  read in
    real space projection operators read in
  non local Contribution for L=           0  read in
    real space projection operators read in
  non local Contribution for L=           0  read in
    real space projection operators read in
  non local Contribution for L=           1  read in
    real space projection operators read in
  non local Contribution for L=           1  read in
    real space projection operators read in
    PAW grid and wavefunctions read in

   number of l-projection  operators is LMAX  =           6
   number of lm-projection operators is LMMAX =          18

 Optimization of the real space projectors (new method)

 maximal supplied QI-value         = 25.13
 optimisation between [QCUT,QGAM] = [ 11.31, 22.87] = [ 35.82,146.48] Ry 
 Optimized for a Real-space Cutoff    1.00 Angstroem

   l    n(q)    QCUT    max X(q) W(low)/X(q) W(high)/X(q)  e(spline) 
   0      7    11.310   115.676    0.43E-03    0.13E-02    0.19E-06
   0      7    11.310    87.132    0.43E-03    0.13E-02    0.18E-06
   1      6    11.310     4.429    0.42E-03    0.74E-03    0.11E-06
   1      6    11.310     2.733    0.34E-03    0.55E-03    0.92E-07
 Optimization of the real space projectors (new method)

 maximal supplied QI-value         = 34.20
 optimisation between [QCUT,QGAM] = [ 11.29, 22.57] = [ 35.68,142.71] Ry 
 Optimized for a Real-space Cutoff    1.16 Angstroem

   l    n(q)    QCUT    max X(q) W(low)/X(q) W(high)/X(q)  e(spline) 
   0      8    11.287    19.460    0.40E-03    0.73E-03    0.16E-06
   0      8    11.287    12.209    0.38E-03    0.70E-03    0.15E-06
   1      7    11.287     4.655    0.22E-03    0.25E-04    0.22E-06
 Optimization of the real space projectors (new method)

 maximal supplied QI-value         = 24.76
 optimisation between [QCUT,QGAM] = [ 11.39, 22.77] = [ 36.31,145.25] Ry 
 Optimized for a Real-space Cutoff    1.00 Angstroem

   l    n(q)    QCUT    max X(q) W(low)/X(q) W(high)/X(q)  e(spline) 
   0      7    11.387    20.381    0.39E-03    0.13E-02    0.15E-06
   0      7    11.387    15.268    0.42E-03    0.14E-02    0.17E-06
   1      6    11.387     5.964    0.41E-03    0.11E-02    0.17E-06
   1      6    11.387     5.382    0.39E-03    0.87E-03    0.15E-06
 Optimization of the real space projectors (new method)

 maximal supplied QI-value         = 19.84
 optimisation between [QCUT,QGAM] = [ 11.31, 22.82] = [ 35.82,145.81] Ry 
 Optimized for a Real-space Cutoff    1.16 Angstroem

   l    n(q)    QCUT    max X(q) W(low)/X(q) W(high)/X(q)  e(spline) 
   0      8    11.310   159.560    0.27E-03    0.30E-03    0.39E-07
   0      8    11.310   115.863    0.27E-03    0.30E-03    0.38E-07
   1      7    11.310    88.339    0.28E-03    0.28E-03    0.77E-07
   1      7    11.310    48.592    0.27E-03    0.27E-03    0.74E-07
 Optimization of the real space projectors (new method)

 maximal supplied QI-value         = 13.61
 optimisation between [QCUT,QGAM] = [ 11.43, 22.86] = [ 36.58,146.31] Ry 
 Optimized for a Real-space Cutoff    1.56 Angstroem

   l    n(q)    QCUT    max X(q) W(low)/X(q) W(high)/X(q)  e(spline) 
   2     10    11.429   130.855    0.22E-03    0.64E-03    0.11E-05
   2     10    11.429   114.007    0.22E-03    0.64E-03    0.11E-05
   0     11    11.429    84.709    0.39E-04    0.67E-04    0.23E-06
   0     11    11.429    49.163    0.35E-04    0.62E-04    0.21E-06
   1     10    11.429    15.765    0.84E-04    0.15E-03    0.24E-06
   1     10    11.429    10.638    0.58E-04    0.12E-03    0.19E-06

 ----------------------------------------------------------------------------- 
|                                                                             |
|  ADVICE TO THIS USER RUNNING 'VASP/VAMP'   (HEAR YOUR MASTER'S VOICE ...):  |
|                                                                             |
|      You enforced a specific xc-type in the INCAR file,                     |
|      a different type was found on the POTCAR file                          |
|          I HOPE YOU KNOW, WHAT YOU ARE  DOING                               |
|                                                                             |
 ----------------------------------------------------------------------------- 

  PAW_PBE C 08Apr2002                   :
 energy of atom  1       EATOM= -147.1560
 kinetic energy error for atom=    0.0076 (will be added to EATOM!!)
  PAW_PBE H 15Jun2001                   :
 energy of atom  2       EATOM=  -12.4884
 kinetic energy error for atom=    0.0020 (will be added to EATOM!!)
  PAW_PBE O 08Apr2002                   :
 energy of atom  3       EATOM= -432.3788
 kinetic energy error for atom=    0.0224 (will be added to EATOM!!)
  PAW_PBE Si 05Jan2001                  :
 energy of atom  4       EATOM= -103.0669
 kinetic energy error for atom=    0.0006 (will be added to EATOM!!)
  PAW_PBE W 08Apr2002                   :
 energy of atom  5       EATOM= -204.6103
 kinetic energy error for atom=    0.0017 (will be added to EATOM!!)


 POSCAR: C  H  O  Si W                           
  positions in direct lattice
  velocities in cartesian coordinates
 exchange correlation table for  LEXCH =        9
   RHO(1)=    0.500       N(1)  =     2000
   RHO(2)=  100.500       N(2)  =     4000

 VTST: version 3.2, (02/03/18)

 CHAIN: initializing optimizer
 
 OPT: Using VASP QUASI-newton optimizer
 CHAIN: Read ICHAIN            0

 POSCAR: C  H  O  Si W                           
  positions in direct lattice
  velocities in cartesian coordinates



--------------------------------------------------------------------------------------------------------


 ion  position               nearest neighbor table
   1  0.660  0.419  0.715-  50 1.09  49 1.09   4 1.34
   2  0.550  0.518  0.793-  52 1.10  51 1.10  53 1.10   3 1.50
   3  0.541  0.526  0.738-  54 1.11   2 1.50 276 1.90
   4  0.685  0.428  0.760-  56 1.09  55 1.09   1 1.34
   5  0.761  0.104  0.651- 131 0.97
   6  0.926  0.279  0.356-  79 0.98
   7  0.793  0.207  0.373- 114 0.97
   8  0.975  0.944  0.325- 123 0.97
   9  0.626  0.963  0.375- 125 0.98
  10  0.821  0.995  0.369- 143 0.97
  11  0.750  0.141  0.458- 181 0.98
  12  0.915  0.249  0.509- 186 0.97
  13  0.583  0.304  0.306- 191 0.97
  14  0.891  0.334  0.616-  97 0.98
  15  0.596  0.363  0.613- 142 0.97
  16  0.593  0.871  0.578- 184 0.99
  17  0.033  0.337  0.653- 190 0.97
  18  0.935  0.420  0.454- 179 0.98
  19  0.746  0.530  0.422-  93 1.00
  20  0.798  0.385  0.637- 171 0.97
  21  0.591  0.569  0.378- 105 0.99
  22  0.718  0.646  0.383- 128 0.99
  23  0.841  0.542  0.420- 134 0.98
  24  0.005  0.604  0.358- 139 0.97
  25  0.828  0.712  0.468- 180 0.99
  26  0.877  0.599  0.721-  59 0.97
  27  0.520  0.986  0.422- 141 0.99
  28  0.223  0.980  0.393- 182 1.00
  29  0.216  0.238  0.319- 197 0.99
  30  0.158  0.330  0.279- 188 0.97
  31  0.342  0.156  0.331- 189 0.98
  32  0.223  0.046  0.323- 196 0.97
  33  0.511  0.827  0.547- 199 0.97
  34  0.369  0.234  0.648-  84 0.97
  35  0.243  0.093  0.599- 135 0.98
  36  0.315  0.487  0.442-  58 0.99
  37  0.409  0.439  0.406- 147 0.98
  38  0.398  0.793  0.389- 185 0.97
  39  0.244  0.655  0.294- 193 0.97
  40  0.312  0.418  0.369- 194 0.98
  41  0.405  0.584  0.339- 195 0.97
  42  0.139  0.488  0.352- 187 0.98
  43  0.593  0.698  0.352-  88 0.97
  44  0.469  0.861  0.444- 198 0.99
  45  0.123  0.324  0.614- 107 0.97
  46  0.074  0.664  0.646- 138 0.97
  47  0.245  0.389  0.682- 183 0.97
  48  0.248  0.815  0.670- 192 0.97
  49  0.638  0.368  0.705-   1 1.09
  50  0.661  0.463  0.687-   1 1.09
  51  0.591  0.490  0.801-   2 1.10
  52  0.515  0.487  0.810-   2 1.10
  53  0.553  0.573  0.810-   2 1.10
  54  0.575  0.556  0.717-   3 1.11
  55  0.706  0.479  0.770-   4 1.09
  56  0.683  0.385  0.788-   4 1.09
  57  0.369  0.648  0.439- 230 1.66 265 1.68
  58  0.347  0.504  0.420-  36 0.99 265 1.67
  59  0.861  0.566  0.697-  26 0.97 236 1.64
  60  0.349  0.960  0.531- 241 1.68 274 1.70
  61  0.034  0.933  0.529- 256 1.63 267 1.66
  62  0.636  0.079  0.489- 234 1.60 223 1.65
  63  0.069  0.052  0.395- 222 1.64 214 1.65
  64  0.452  0.130  0.421- 239 1.65 220 1.65
  65  0.806  0.214  0.483- 238 1.67 235 1.69
  66  0.973  0.182  0.599- 216 1.63 246 1.65
  67  0.275  0.299  0.449- 262 1.65 272 1.66
  68  0.556  0.775  0.442- 243 1.51 270 1.66
  69  0.391  0.975  0.620- 260 1.65 274 1.66
  70  0.178  0.350  0.405- 262 1.66 237 1.67
  71  0.866  0.684  0.637- 240 1.64 236 1.65
  72  0.866  0.967  0.467- 232 1.60 247 1.65
  73  0.301  0.761  0.458- 230 1.65 244 1.67
  74  0.422  0.261  0.380- 239 1.67 259 1.67
  75  0.811  0.465  0.520- 266 1.63 213 1.64
  76  0.984  0.073  0.521- 256 1.68 216 1.69
  77  0.509  0.463  0.631- 275 1.67 276 1.97
  78  0.035  0.920  0.429- 267 1.64 214 1.65
  79  0.963  0.303  0.351-   6 0.98 215 1.65
  80  0.070  0.336  0.376- 215 1.64 237 1.65
  81  0.208  0.729  0.395- 244 1.66 254 1.67
  82  0.039  0.419  0.499- 269 1.64 242 1.65
  83  0.240  0.286  0.588- 250 1.63 227 1.63
  84  0.397  0.196  0.645-  34 0.97 221 1.64
  85  0.455  0.565  0.580- 275 1.68 252 1.68
  86  0.910  0.749  0.558- 240 1.64 219 1.66
  87  0.869  0.108  0.442- 247 1.64 235 1.65
  88  0.573  0.667  0.376-  43 0.97 243 1.68
  89  0.142  0.159  0.376- 268 1.65 222 1.65
  90  0.351  0.765  0.607- 212 1.62 253 1.64
  91  0.911  0.845  0.483- 232 1.62 219 1.66
  92  0.061  0.537  0.442- 269 1.66 211 1.67
  93  0.708  0.555  0.420-  19 1.00 225 1.67
  94  0.075  0.817  0.483- 267 1.50 249 1.65
  95  0.700  0.828  0.433- 224 1.53 257 1.65
  96  0.730  0.049  0.543- 223 1.64 258 1.64
  97  0.919  0.302  0.632-  14 0.98 246 1.63
  98  0.735  0.853  0.613- 231 1.66 228 1.68
  99  0.625  0.527  0.486- 233 1.58 225 1.68
 100  0.557  0.630  0.467- 243 1.52 233 1.64
 101  0.425  0.249  0.556- 221 1.68 264 1.68
 102  0.978  0.728  0.477- 249 1.65 219 1.65
 103  0.654  0.594  0.633- 271 1.65 217 1.67
 104  0.396  0.748  0.515- 230 1.65 212 1.65
 105  0.603  0.518  0.386-  21 0.99 225 1.65
 106  0.720  0.631  0.557- 255 1.63 271 1.64
 107  0.148  0.365  0.622-  45 0.97 227 1.64
 108  0.067  0.549  0.542- 269 1.63 273 1.64
 109  0.819  0.885  0.537- 232 1.65 231 1.67
 110  0.828  0.355  0.452- 238 1.65 213 1.65
 111  0.528  0.298  0.532- 264 1.62 245 1.63
 112  0.737  0.500  0.595- 271 1.65 266 1.66
 113  0.557  0.172  0.395- 251 1.59 220 1.64
 114  0.806  0.256  0.383-   7 0.97 238 1.67
 115  0.237  0.953  0.508- 241 1.58 226 1.67
 116  0.693  0.777  0.542- 255 1.63 228 1.64
 117  0.924  0.950  0.553- 256 1.65 232 1.65
 118  0.526  0.318  0.399- 251 1.45 259 1.66
 119  0.467  0.994  0.546- 260 1.69 261 1.70
 120  0.838  0.095  0.540- 235 1.66 258 1.66
 121  0.538  0.116  0.486- 234 1.61 220 1.67
 122  0.350  0.187  0.440- 272 1.63 239 1.65
 123  0.012  0.962  0.335-   8 0.97 214 1.65
 124  0.450  0.601  0.673- 252 1.65 276 1.95
 125  0.655  0.925  0.379-   9 0.98 224 1.66
 126  0.076  0.686  0.436- 211 1.65 249 1.66
 127  0.454  0.406  0.553- 275 1.68 264 1.70
 128  0.719  0.700  0.380-  22 0.99 257 1.65
 129  0.454  0.709  0.597- 212 1.63 252 1.63
 130  0.753  0.709  0.476- 255 1.63 257 1.69
 131  0.779  0.121  0.621-   5 0.97 258 1.64
 132  0.993  0.308  0.448- 242 1.66 215 1.68
 133  0.537  0.508  0.535- 275 1.64 233 1.65
 134  0.817  0.499  0.423-  23 0.98 213 1.69
 135  0.236  0.146  0.606-  35 0.98 250 1.62
 136  0.204  0.831  0.471- 226 1.50 244 1.63
 137  0.240  0.559  0.523- 229 1.65 218 1.66
 138  0.061  0.625  0.624-  46 0.97 273 1.64
 139  0.046  0.602  0.354-  24 0.97 211 1.65
 140  0.801  0.979  0.606- 231 1.66 258 1.68
 141  0.538  0.028  0.405-  27 0.99 220 1.66
 142  0.606  0.312  0.605-  15 0.97 245 1.64
 143  0.862  0.004  0.369-  10 0.97 247 1.66
 144  0.095  0.149  0.467- 248 1.62 222 1.65
 145  0.171  0.204  0.531- 248 1.61 250 1.63
 146  0.641  0.704  0.455- 243 1.65 257 1.66
 147  0.437  0.410  0.386-  37 0.98 259 1.66
 148  0.574  0.060  0.572- 261 1.62 234 1.65
 149  0.151  0.593  0.389- 254 1.68 211 1.68
 150  0.268  0.602  0.392- 265 1.65 254 1.67
 151  0.440  0.322  0.470- 264 1.65 259 1.69
 152  0.238  0.159  0.430- 268 1.65 272 1.67
 153  0.073  0.150  0.563- 248 1.64 216 1.64
 154  0.845  0.544  0.600- 236 1.66 266 1.66
 155  0.621  0.280  0.411- 263 1.65 251 1.66
 156  0.603  0.892  0.467- 270 1.29 224 1.67
 157  0.031  0.195  0.389- 215 1.66 222 1.66
 158  0.608  0.196  0.547- 234 1.62 245 1.63
 159  0.133  0.938  0.479- 267 1.65 226 1.66
 160  0.080  0.280  0.512- 242 1.64 248 1.65
 161  0.372  0.107  0.568- 274 1.63 221 1.69
 162  0.067  0.697  0.536- 249 1.63 273 1.63
 163  0.666  0.415  0.430- 225 1.65 263 1.65
 164  0.800  0.730  0.564- 255 1.61 240 1.63
 165  0.704  0.957  0.470- 223 1.65 224 1.66
 166  0.599  0.636  0.552- 233 1.63 217 1.63
 167  0.723  0.294  0.452- 238 1.63 263 1.64
 168  0.978  0.314  0.547- 242 1.64 246 1.67
 169  0.159  0.630  0.571- 229 1.63 273 1.65
 170  0.633  0.327  0.508- 245 1.62 263 1.65
 171  0.819  0.396  0.606-  20 0.97 266 1.65
 172  0.959  0.027  0.417- 247 1.64 214 1.65
 173  0.282  0.195  0.519- 272 1.63 250 1.65
 174  0.249  0.443  0.461- 218 1.66 262 1.71
 175  0.273  0.851  0.569- 241 1.64 253 1.65
 176  0.204  0.686  0.487- 229 1.63 244 1.66
 177  0.147  0.476  0.493- 218 1.63 269 1.65
 178  0.224  0.423  0.557- 218 1.61 227 1.63
 179  0.911  0.453  0.474-  18 0.98 213 1.65
 180  0.870  0.705  0.464-  25 0.99 219 1.65
 181  0.738  0.093  0.445-  11 0.98 223 1.66
 182  0.222  0.930  0.408-  28 1.00 226 1.64
 183  0.255  0.403  0.648-  47 0.97 227 1.64
 184  0.630  0.883  0.593-  16 0.99 228 1.62
 185  0.410  0.789  0.423-  38 0.97 230 1.68
 186  0.918  0.196  0.508-  12 0.97 235 1.65
 187  0.133  0.444  0.332-  42 0.98 237 1.65
 188  0.155  0.304  0.311-  30 0.97 237 1.69
 189  0.373  0.131  0.348-  31 0.98 239 1.66
 190  0.035  0.292  0.633-  17 0.97 246 1.66
 191  0.573  0.257  0.320-  13 0.97 251 1.66
 192  0.246  0.770  0.650-  48 0.97 253 1.64
 193  0.207  0.648  0.310-  39 0.97 254 1.65
 194  0.275  0.392  0.367-  40 0.98 262 1.66
 195  0.365  0.598  0.342-  41 0.97 265 1.67
 196  0.226  0.056  0.358-  32 0.97 268 1.69
 197  0.241  0.196  0.329-  29 0.99 268 1.66
 198  0.501  0.892  0.455-  44 0.99 270 1.60
 199  0.550  0.828  0.534-  33 0.97 270 1.67
 200  0.545  0.646  0.634- 217 1.65 252 1.67
 201  0.478  0.125  0.597- 261 1.65 221 1.65
 202  0.263  0.695  0.568- 253 1.65 229 1.65
 203  0.441  0.850  0.581- 260 1.65 212 1.68
 204  0.765  0.617  0.650- 271 1.65 236 1.66
 205  0.845  0.832  0.623- 240 1.66 231 1.68
 206  0.640  0.740  0.621- 217 1.67 228 1.71
 207  0.008  0.033  0.603- 256 1.69 216 1.69
 208  0.284  0.004  0.593- 274 1.69 241 1.70
 209  0.502  0.974  0.629- 260 1.69 261 1.70
 210  0.433  0.457  0.732- 276 1.72
 211  0.083  0.606  0.406- 139 1.65 126 1.65  92 1.67 149 1.68 269 3.13
 212  0.409  0.768  0.574-  90 1.62 129 1.63 104 1.65 203 1.68 253 3.05
 213  0.842  0.441  0.468-  75 1.64 110 1.65 179 1.65 134 1.69
 214  0.017  0.990  0.394-  63 1.65 172 1.65  78 1.65 123 1.65 267 3.11 222 3.13
 215  0.015  0.284  0.391-  80 1.64  79 1.65 157 1.66 132 1.68 242 3.11 222 3.11
 216  0.009  0.115  0.573-  66 1.63 153 1.64  76 1.69 207 1.69 256 2.39 248 3.05 246 3.07
 217  0.610  0.658  0.611- 166 1.63 200 1.65 103 1.67 206 1.67 271 2.87 233 3.13
 218  0.214  0.476  0.510- 178 1.61 177 1.63 174 1.66 137 1.66 229 3.11 262 3.14
 219  0.915  0.756  0.496- 102 1.65 180 1.65  86 1.66  91 1.66 232 2.99 240 3.03
 220  0.521  0.110  0.426- 113 1.64  64 1.65 141 1.66 121 1.67 251 3.08 234 3.12
 221  0.418  0.171  0.590-  84 1.64 201 1.65 101 1.68 161 1.69 274 3.13 261 3.13
 222  0.083  0.139  0.407-  63 1.64 144 1.65  89 1.65 157 1.66 215 3.11 214 3.13 268 3.14
 223  0.702  0.045  0.487-  96 1.64 165 1.65  62 1.65 181 1.66 234 3.09 224 3.10 258 3.15
 224  0.665  0.898  0.437-  95 1.53 165 1.66 125 1.66 156 1.67 270 2.83 257 3.06 223 3.10
 225  0.650  0.504  0.430- 105 1.65 163 1.65  93 1.67  99 1.68 233 3.08
 226  0.198  0.912  0.464- 136 1.50 182 1.64 159 1.66 115 1.67 244 3.01 241 3.07 267 3.07
 227  0.215  0.367  0.604-  83 1.63 178 1.63 107 1.64 183 1.64
 228  0.674  0.814  0.595- 184 1.62 116 1.64  98 1.68 206 1.71 255 2.90
 229  0.217  0.642  0.539- 176 1.63 169 1.63 202 1.65 137 1.65 244 3.09 218 3.11 273 3.12
 230  0.369  0.735  0.459- 104 1.65  73 1.65  57 1.66 185 1.68
 231  0.798  0.889  0.596- 140 1.66  98 1.66 109 1.67 205 1.68 240 2.86 232 2.99 258 3.14
 232  0.880  0.912  0.512-  72 1.60  91 1.62 109 1.65 117 1.65 219 2.99 231 2.99 256 3.05 247 3.13

 233  0.577  0.575  0.512-  99 1.58 166 1.63 100 1.64 133 1.65 243 3.00 225 3.08 217 3.13
 234  0.590  0.116  0.525-  62 1.60 121 1.61 158 1.62 148 1.65 261 2.85 223 3.09 245 3.11 220 3.12

 235  0.858  0.152  0.495- 186 1.65  87 1.65 120 1.66  65 1.69 247 3.07 238 3.15
 236  0.835  0.604  0.646-  59 1.64  71 1.65 154 1.66 204 1.66 271 2.93 240 3.01 266 3.01
 237  0.134  0.360  0.357- 187 1.65  80 1.65  70 1.67 188 1.69 262 3.11
 238  0.791  0.280  0.442- 167 1.63 110 1.65 114 1.67  65 1.67 235 3.15
 239  0.399  0.177  0.396-  64 1.65 122 1.65 189 1.66  74 1.67 259 3.07
 240  0.856  0.750  0.597- 164 1.63  86 1.64  71 1.64 205 1.66 231 2.86 236 3.01 219 3.03
 241  0.283  0.936  0.550- 115 1.58 175 1.64  60 1.68 208 1.70 274 2.38 226 3.07
 242  0.023  0.330  0.502- 160 1.64 168 1.64  82 1.65 132 1.66 246 3.11 215 3.11 248 3.13
 243  0.575  0.695  0.436-  68 1.51 100 1.52 146 1.65  88 1.68 233 3.00 270 3.06 257 3.10
 244  0.230  0.753  0.452- 136 1.63 176 1.66  81 1.66  73 1.67 254 2.97 226 3.01 229 3.09
 245  0.594  0.284  0.548- 170 1.62 111 1.63 158 1.63 142 1.64 234 3.11 263 3.15
 246  0.975  0.272  0.603-  97 1.63  66 1.65 190 1.66 168 1.67 216 3.07 242 3.11
 247  0.889  0.025  0.424-  87 1.64 172 1.64  72 1.65 143 1.66 235 3.07 232 3.13
 248  0.105  0.196  0.518- 145 1.61 144 1.62 153 1.64 160 1.65 216 3.05 242 3.13
 249  0.048  0.733  0.483- 162 1.63 102 1.65  94 1.65 126 1.66 267 3.05 273 3.15
 250  0.232  0.206  0.561- 135 1.62  83 1.63 145 1.63 173 1.65 272 3.03
 251  0.561  0.258  0.381- 118 1.45 113 1.59 155 1.66 191 1.66 259 2.87 220 3.08
 252  0.476  0.631  0.620- 129 1.63 124 1.65 200 1.67  85 1.68 275 2.98 276 3.02
 253  0.282  0.771  0.598- 192 1.64  90 1.64 202 1.65 175 1.65 212 3.05
 254  0.209  0.643  0.372- 193 1.65 150 1.67  81 1.67 149 1.68 244 2.97
 255  0.740  0.711  0.536- 164 1.61 130 1.63 106 1.63 116 1.63 228 2.90 257 2.90 271 3.07
 256  0.987  0.991  0.550-  61 1.63 117 1.65  76 1.68 207 1.69 216 2.39 232 3.05
 257  0.703  0.737  0.434-  95 1.65 128 1.65 146 1.66 130 1.69 255 2.90 224 3.06 243 3.10
 258  0.788  0.060  0.577-  96 1.64 131 1.64 120 1.66 140 1.68 231 3.14 223 3.15
 259  0.456  0.328  0.409- 147 1.66 118 1.66  74 1.67 151 1.69 251 2.87 239 3.07
 260  0.449  0.939  0.594-  69 1.65 203 1.65 119 1.69 209 1.69 261 2.36 274 2.73
 261  0.508  0.043  0.586- 148 1.62 201 1.65 119 1.70 209 1.70 260 2.36 234 2.85 221 3.13
 262  0.244  0.370  0.421-  67 1.65  70 1.66 194 1.66 174 1.71 237 3.11 218 3.14
 263  0.659  0.330  0.450- 167 1.64 155 1.65 163 1.65 170 1.65 245 3.15
 264  0.461  0.319  0.529- 111 1.62 151 1.65 101 1.68 127 1.70
 265  0.337  0.590  0.399- 150 1.65 195 1.67  58 1.67  57 1.68
 266  0.803  0.476  0.580-  75 1.63 171 1.65 154 1.66 112 1.66 271 2.90 236 3.01
 267  0.069  0.899  0.481-  94 1.50  78 1.64 159 1.65  61 1.66 249 3.05 226 3.07 214 3.11
 268  0.212  0.144  0.374-  89 1.65 152 1.65 197 1.66 196 1.69 272 3.12 222 3.14
 269  0.078  0.494  0.495- 108 1.63  82 1.64 177 1.65  92 1.66 273 3.10 211 3.13
 270  0.558  0.852  0.475- 156 1.29 198 1.60  68 1.66 199 1.67 224 2.83 243 3.06
 271  0.718  0.585  0.610- 106 1.64 103 1.65 204 1.65 112 1.65 217 2.87 266 2.90 236 2.93 255 3.07

 272  0.287  0.210  0.459- 173 1.63 122 1.63  67 1.66 152 1.67 250 3.03 268 3.12
 273  0.088  0.626  0.568- 162 1.63 138 1.64 108 1.64 169 1.65 269 3.10 229 3.12 249 3.15
 274  0.353  0.022  0.578- 161 1.63  69 1.66 208 1.69  60 1.70 241 2.38 260 2.73 221 3.13
 275  0.487  0.482  0.574- 133 1.64  77 1.67 127 1.68  85 1.68 252 2.98 276 3.26
 276  0.479  0.505  0.694- 210 1.72   3 1.90 124 1.95  77 1.97 252 3.02 275 3.26

  LATTYP: Found a simple orthorhombic cell.
 ALAT       =    18.1212369514
 B/A-ratio  =     1.2919258579
 C/A-ratio  =     1.4835282260
  
  Lattice vectors:
  
 A1 = (   0.0000000000, -18.1212369514,   0.0000000000)
 A2 = ( -23.4112945954,   0.0000000000,   0.0000000000)
 A3 = (   0.0000000000,   0.0000000000, -26.8833665073)


Analysis of symmetry for initial positions (statically):
=====================================================================
 Subroutine PRICEL returns:
 Original cell was already a primitive cell.
 

 Routine SETGRP: Setting up the symmetry group for a 
 simple orthorhombic supercell.


 Subroutine GETGRP returns: Found  1 space group operations
 (whereof  1 operations were pure point group operations)
 out of a pool of  8 trial point group operations.


The static configuration has the point symmetry C_1 .


Analysis of symmetry for dynamics (positions and initial velocities):
=====================================================================
 Subroutine PRICEL returns:
 Original cell was already a primitive cell.
 

 Routine SETGRP: Setting up the symmetry group for a 
 simple orthorhombic supercell.


 Subroutine GETGRP returns: Found  1 space group operations
 (whereof  1 operations were pure point group operations)
 out of a pool of  8 trial point group operations.


The dynamic configuration has the point symmetry C_1 .


Analysis of constrained symmetry for selective dynamics:
=====================================================================
 Subroutine PRICEL returns:
 Original cell was already a primitive cell.
 

 Routine SETGRP: Setting up the symmetry group for a 
 simple orthorhombic supercell.


 Subroutine GETGRP returns: Found  1 space group operations
 (whereof  1 operations were pure point group operations)
 out of a pool of  8 trial point group operations.


The constrained configuration has the point symmetry C_1 .


 Subroutine INISYM returns: Found  1 space group operations
 (whereof  1 operations are pure point group operations),
 and found     1 'primitive' translations



 KPOINTS: KPOINTS created by Atomic Simulation Env

Automatic generation of k-mesh.
Space group operators:
 irot       det(A)        alpha          n_x          n_y          n_z        tau_x        tau_y        tau_z
    1     1.000000     0.000000     1.000000     0.000000     0.000000     0.000000     0.000000     0.000000
 
 Subroutine IBZKPT returns following result:
 ===========================================
 
 Found      5 irreducible k-points:
 
 Following reciprocal coordinates:
            Coordinates               Weight
  0.000000  0.000000  0.000000      1.000000
  0.333333  0.000000  0.000000      2.000000
  0.000000  0.333333  0.000000      2.000000
  0.333333  0.333333  0.000000      2.000000
 -0.333333  0.333333  0.000000      2.000000
 
 Following cartesian coordinates:
            Coordinates               Weight
  0.000000  0.000000  0.000000      1.000000
  0.014238  0.000000  0.000000      2.000000
  0.000000  0.018395  0.000000      2.000000
  0.014238  0.018395  0.000000      2.000000
 -0.014238  0.018395  0.000000      2.000000
 


--------------------------------------------------------------------------------------------------------




 Dimension of arrays:
   k-points           NKPTS =      5   k-points in BZ     NKDIM =      5   number of bands    NBANDS=    768
   number of dos      NEDOS =    301   number of ions     NIONS =    276
   non local maximal  LDIM  =      6   non local SUM 2l+1 LMDIM =     18
   total plane-waves  NPLWV = ******
   max r-space proj   IRMAX =   2748   max aug-charges    IRDMAX=   9808
   dimension x,y,z NGX =   128 NGY =  100 NGZ =  150
   dimension x,y,z NGXF=   256 NGYF=  200 NGZF=  300
   support grid    NGXF=   256 NGYF=  200 NGZF=  300
   ions per type =               4  52 154  65   1
   NGX,Y,Z   is equivalent  to a cutoff of   9.09,  9.17,  9.28 a.u.
   NGXF,Y,Z  is equivalent  to a cutoff of  18.18, 18.35, 18.55 a.u.

 SYSTEM =  unknown system                          
 POSCAR =  C  H  O  Si W                           

 Startparameter for this run:
   NWRITE =      2    write-flag & timer
   PREC   = normal    normal or accurate (medium, high low for compatibility)
   ISTART =      0    job   : 0-new  1-cont  2-samecut
   ICHARG =      2    charge: 1-file 2-atom 10-const
   ISPIN  =      1    spin polarized calculation?
   LNONCOLLINEAR =      F non collinear calculations
   LSORBIT =      F    spin-orbit coupling
   INIWAV =      1    electr: 0-lowe 1-rand  2-diag
   LASPH  =      T    aspherical Exc in radial PAW
   METAGGA=      F    non-selfconsistent MetaGGA calc.

 Electronic Relaxation 1
   ENCUT  =  500.0 eV  36.75 Ry    6.06 a.u.  42.68 33.04 49.01*2*pi/ulx,y,z
   ENINI  =  500.0     initial cutoff
   ENAUG  =  644.9 eV  augmentation charge cutoff
   NELM   =     60;   NELMIN=  2; NELMDL=  0     # of ELM steps 
   EDIFF  = 0.1E-03   stopping-criterion for ELM
   LREAL  =      T    real-space projection
   NLSPLINE    = F    spline interpolate recip. space projectors
   LCOMPAT=      F    compatible to vasp.4.4
   GGA_COMPAT  = T    GGA compatible to vasp.4.4-vasp.4.6
   LMAXPAW     = -100 max onsite density
   LMAXMIX     =    2 max onsite mixed and CHGCAR
   VOSKOWN=      0    Vosko Wilk Nusair interpolation
   ROPT   =   -0.00050  -0.00050  -0.00050  -0.00050
   ROPT   =   -0.00050
 Ionic relaxation
   EDIFFG = -.5E-01   stopping-criterion for IOM
   NSW    =    500    number of steps for IOM
   NBLOCK =      1;   KBLOCK =    500    inner block; outer block 
   IBRION =      1    ionic relax: 0-MD 1-quasi-New 2-CG
   NFREE  =      0    steps in history (QN), initial steepest desc. (CG)
   ISIF   =      0    stress and relaxation
   IWAVPR =     11    prediction:  0-non 1-charg 2-wave 3-comb
   ISYM   =      2    0-nonsym 1-usesym 2-fastsym
   LCORR  =      T    Harris-Foulkes like correction to forces

   POTIM  = 0.5000    time-step for ionic-motion
   TEIN   =    0.0    initial temperature
   TEBEG  =    0.0;   TEEND  =   0.0 temperature during run
   SMASS  =  -3.00    Nose mass-parameter (am)
   estimated Nose-frequenzy (Omega)   =  0.10E-29 period in steps =****** mass=  -0.125E-25a.u.
   SCALEE = 1.0000    scale energy and forces
   NPACO  =    256;   APACO  = 16.0  distance and # of slots for P.C.
   PSTRESS=    0.0 pullay stress

  Mass of Ions in am
   POMASS =  12.01  1.00 16.00 28.09183.85
  Ionic Valenz
   ZVAL   =   4.00  1.00  6.00  4.00  6.00
  Atomic Wigner-Seitz radii
   RWIGS  =  -1.00 -1.00 -1.00 -1.00 -1.00
  virtual crystal weights 
   VCA    =   1.00  1.00  1.00  1.00  1.00
   NELECT =    1258.0000    total number of electrons
   NUPDOWN=      -1.0000    fix difference up-down

 DOS related values:
   EMIN   =  10.00;   EMAX   =-10.00  energy-range for DOS
   EFERMI =   0.00
   ISMEAR =     0;   SIGMA  =   0.20  broadening in eV -4-tet -1-fermi 0-gaus

 Electronic relaxation 2 (details)
   IALGO  =     68    algorithm
   LDIAG  =      T    sub-space diagonalisation (order eigenvalues)
   LSUBROT=      F    optimize rotation matrix (better conditioning)
   TURBO    =      0    0=normal 1=particle mesh
   IRESTART =      0    0=no restart 2=restart with 2 vectors
   NREBOOT  =      0    no. of reboots
   NMIN     =      0    reboot dimension
   EREF     =   0.00    reference energy to select bands
   IMIX   =      4    mixing-type and parameters
     AMIX     =   0.40;   BMIX     =  1.00
     AMIX_MAG =   1.60;   BMIX_MAG =  1.00
     AMIN     =   0.10
     WC   =   100.;   INIMIX=   1;  MIXPRE=   1;  MAXMIX= -45

 Intra band minimization:
   WEIMIN = 0.0010     energy-eigenvalue tresh-hold
   EBREAK =  0.33E-07  absolut break condition
   DEPER  =   0.30     relativ break condition  

   TIME   =   0.40     timestep for ELM

  volume/ion in A,a.u.               =      41.32       278.86
  Fermi-wavevector in a.u.,A,eV,Ry     =   0.785120  1.483662  8.386815  0.616413
  Thomas-Fermi vector in A             =   1.889391

 Write flags
   LWAVE        =      F    write WAVECAR
   LDOWNSAMPLE  =      F    k-point downsampling of WAVECAR
   LCHARG       =      F    write CHGCAR
   LVTOT        =      F    write LOCPOT, total local potential
   LVHAR        =      F    write LOCPOT, Hartree potential only
   LELF         =      F    write electronic localiz. function (ELF)
   LORBIT       =      0    0 simple, 1 ext, 2 COOP (PROOUT), +10 PAW based schemes


 Dipole corrections
   LMONO  =      F    monopole corrections only (constant potential shift)
   LDIPOL =      T    correct potential (dipole corrections)
   IDIPOL =      3    1-x, 2-y, 3-z, 4-all directions 
   EPSILON=  1.0000000 bulk dielectric constant

 Exchange correlation treatment:
   GGA     =    RP    GGA type
   LEXCH   =     9    internal setting for exchange type
   VOSKOWN=      0    Vosko Wilk Nusair interpolation
   LHFCALC =     F    Hartree Fock is set to
   LHFONE  =     F    Hartree Fock one center treatment
   AEXX    =    0.0000 exact exchange contribution

 Linear response parameters
   LEPSILON=     F    determine dielectric tensor
   LRPA    =     F    only Hartree local field effects (RPA)
   LNABLA  =     F    use nabla operator in PAW spheres
   LVEL    =     F    velocity operator in full k-point grid
   LINTERFAST=   F  fast interpolation
   KINTER  =     0    interpolate to denser k-point grid
   CSHIFT  =0.1000    complex shift for real part using Kramers Kronig
   OMEGAMAX=  -1.0    maximum frequency
   DEG_THRESHOLD= 0.2000000E-02 threshold for treating states as degnerate
   RTIME   =   -0.100 relaxation time in fs
  (WPLASMAI=    0.000 imaginary part of plasma frequency in eV, 0.658/RTIME)
   DFIELD  = 0.0000000 0.0000000 0.0000000 field for delta impulse in time

 Orbital magnetization related:
   ORBITALMAG=     F  switch on orbital magnetization
   LCHIMAG   =     F  perturbation theory with respect to B field
   DQ        =  0.001000  dq finite difference perturbation B field
   LLRAUG    =     F  two centre corrections for induced B field



--------------------------------------------------------------------------------------------------------


 quasi-Newton-method for relaxation of ions
   using selective dynamics as specified on POSCAR
 charge density and potential will be updated during run
 non-spin polarized calculation
 RMM-DIIS sequential band-by-band and
  variant of blocked Davidson during initial phase
 perform sub-space diagonalisation
    before iterative eigenvector-optimisation
 modified Broyden-mixing scheme, WC =      100.0
 initial mixing is a Kerker type mixing with AMIX =  0.4000 and BMIX =      1.0000
 Hartree-type preconditioning will be used
 using additional bands          139
 real space projection scheme for non local part
 use partial core corrections
 calculate Harris-corrections to forces   (improved forces if not selfconsistent)
 use gradient corrections 
 use of overlap-Matrix (Vanderbilt PP)
 Gauss-broadening in eV      SIGMA  =   0.20


--------------------------------------------------------------------------------------------------------


  energy-cutoff  :      500.00
  volume of cell :    11405.04
      direct lattice vectors                 reciprocal lattice vectors
    23.411294595  0.000000000  0.000000000     0.042714426  0.000000000  0.000000000
     0.000000000 18.121236951  0.000000000     0.000000000  0.055183871  0.000000000
     0.000000000  0.000000000 26.883366507     0.000000000  0.000000000  0.037197722

  length of vectors
    23.411294595 18.121236951 26.883366507     0.042714426  0.055183871  0.037197722



 k-points in units of 2pi/SCALE and weight: KPOINTS created by Atomic Simulation Env
   0.00000000  0.00000000  0.00000000       0.111
   0.01423814  0.00000000  0.00000000       0.222
   0.00000000  0.01839462  0.00000000       0.222
   0.01423814  0.01839462  0.00000000       0.222
  -0.01423814  0.01839462  0.00000000       0.222

 k-points in reciprocal lattice and weights: KPOINTS created by Atomic Simulation Env
   0.00000000  0.00000000  0.00000000       0.111
   0.33333333  0.00000000  0.00000000       0.222
   0.00000000  0.33333333  0.00000000       0.222
   0.33333333  0.33333333  0.00000000       0.222
  -0.33333333  0.33333333  0.00000000       0.222

 position of ions in fractional coordinates (direct lattice) 
   0.66032336  0.41908254  0.71488914
   0.55021665  0.51819297  0.79282775
   0.54120821  0.52577091  0.73768333
   0.68458356  0.42787867  0.75963868
   0.76074724  0.10375146  0.65109643
   0.92642768  0.27866896  0.35633493
   0.79333970  0.20727890  0.37345652
   0.97453911  0.94360860  0.32530279
   0.62573266  0.96347285  0.37523120
   0.82053840  0.99500666  0.36899263
   0.74999307  0.14117876  0.45803819
   0.91546643  0.24946405  0.50912886
   0.58349286  0.30426355  0.30592717
   0.89103209  0.33429119  0.61613613
   0.59580082  0.36251958  0.61330691
   0.59349809  0.87097614  0.57782535
   0.03319672  0.33714048  0.65293290
   0.93527051  0.41951423  0.45410146
   0.74613838  0.53031199  0.42248819
   0.79844376  0.38468788  0.63679180
   0.59110202  0.56868283  0.37803474
   0.71843379  0.64593279  0.38346059
   0.84115291  0.54242660  0.41959617
   0.00476455  0.60379815  0.35777830
   0.82835870  0.71235667  0.46794226
   0.87725386  0.59886345  0.72133803
   0.51999031  0.98556476  0.42170307
   0.22309457  0.98015484  0.39320502
   0.21637369  0.23785146  0.31923033
   0.15750105  0.32980623  0.27898292
   0.34154688  0.15558571  0.33077276
   0.22271586  0.04575893  0.32273843
   0.51115630  0.82692597  0.54690971
   0.36885092  0.23441956  0.64796814
   0.24327833  0.09344821  0.59882029
   0.31538097  0.48713646  0.44243467
   0.40895618  0.43873486  0.40569060
   0.39849950  0.79311361  0.38878680
   0.24420236  0.65543008  0.29432688
   0.31174138  0.41847571  0.36925764
   0.40547429  0.58427965  0.33881989
   0.13935762  0.48797365  0.35192946
   0.59326935  0.69798713  0.35239799
   0.46900683  0.86142747  0.44382838
   0.12293079  0.32431313  0.61354119
   0.07424052  0.66370114  0.64627324
   0.24516685  0.38888559  0.68207066
   0.24796610  0.81453473  0.67040091
   0.63819353  0.36815113  0.70478007
   0.66124964  0.46272917  0.68691295
   0.59089607  0.49000257  0.80089089
   0.51506760  0.48744668  0.81030659
   0.55251503  0.57341179  0.81011783
   0.57506996  0.55562824  0.71712693
   0.70649364  0.47897824  0.76991992
   0.68291070  0.38465899  0.78797633
   0.36894173  0.64835510  0.43900002
   0.34681565  0.50403387  0.42038813
   0.86064481  0.56623939  0.69672975
   0.34862258  0.96034079  0.53053167
   0.03351314  0.93257234  0.52856016
   0.63635548  0.07886855  0.48937667
   0.06864615  0.05226542  0.39511073
   0.45189954  0.12956232  0.42059728
   0.80588415  0.21365018  0.48316661
   0.97308533  0.18153439  0.59876074
   0.27476529  0.29917287  0.44851223
   0.55635417  0.77509129  0.44175101
   0.39084622  0.97536786  0.61960601
   0.17751724  0.34996845  0.40527312
   0.86635043  0.68433348  0.63735995
   0.86569601  0.96717693  0.46703846
   0.30104714  0.76093683  0.45792526
   0.42161095  0.26125222  0.37959630
   0.81131229  0.46473992  0.52040962
   0.98360865  0.07277574  0.52123973
   0.50903498  0.46348270  0.63147861
   0.03453641  0.91994776  0.42940526
   0.96303654  0.30319531  0.35125762
   0.06962669  0.33610577  0.37637178
   0.20829566  0.72864429  0.39536010
   0.03890126  0.41910192  0.49910875
   0.23989323  0.28606287  0.58774775
   0.39738024  0.19579643  0.64544128
   0.45497421  0.56454663  0.58026253
   0.90982877  0.74919993  0.55752689
   0.86912727  0.10804334  0.44227833
   0.57257679  0.66733185  0.37613173
   0.14242656  0.15912550  0.37597224
   0.35139035  0.76515719  0.60654385
   0.91099605  0.84504757  0.48317962
   0.06133801  0.53687171  0.44225348
   0.70833903  0.55516655  0.41995768
   0.07548726  0.81680680  0.48299416
   0.70046477  0.82755571  0.43263529
   0.73012262  0.04898941  0.54300145
   0.91895352  0.30202715  0.63212093
   0.73507669  0.85342131  0.61290331
   0.62512195  0.52739400  0.48637871
   0.55657330  0.62970304  0.46724942
   0.42523170  0.24901556  0.55599220
   0.97829009  0.72824363  0.47679564
   0.65398315  0.59429309  0.63330822
   0.39635657  0.74818416  0.51493601
   0.60269007  0.51766545  0.38567099
   0.72005907  0.63130887  0.55704373
   0.14842316  0.36497409  0.62156241
   0.06660569  0.54863955  0.54195342
   0.81891058  0.88479616  0.53664404
   0.82821553  0.35538514  0.45190334
   0.52754844  0.29789416  0.53199552
   0.73663243  0.49950011  0.59541569
   0.55743394  0.17243111  0.39490854
   0.80596408  0.25641257  0.38329286
   0.23744622  0.95325075  0.50791956
   0.69293351  0.77651789  0.54159896
   0.92392367  0.94975639  0.55293727
   0.52573722  0.31778112  0.39855594
   0.46740961  0.99378050  0.54629222
   0.83767757  0.09484401  0.53977208
   0.53790325  0.11641749  0.48623709
   0.35019344  0.18660873  0.43963639
   0.01176032  0.96241390  0.33524376
   0.45001568  0.60141250  0.67338666
   0.65496522  0.92539750  0.37922825
   0.07629334  0.68602626  0.43588102
   0.45429142  0.40579903  0.55297986
   0.71921944  0.70042085  0.37958300
   0.45375043  0.70858885  0.59694247
   0.75255106  0.70932458  0.47629548
   0.77850919  0.12115080  0.62071150
   0.99327462  0.30801347  0.44840298
   0.53719398  0.50847250  0.53533702
   0.81677759  0.49906173  0.42344221
   0.23595296  0.14564584  0.60550466
   0.20353331  0.83070132  0.47053363
   0.24005446  0.55896176  0.52291213
   0.06137120  0.62545799  0.62375711
   0.04607407  0.60234669  0.35417863
   0.80087646  0.97893313  0.60583733
   0.53799091  0.02769749  0.40450275
   0.60648322  0.31222390  0.60497005
   0.86154611  0.00408085  0.36920633
   0.09491131  0.14902284  0.46708233
   0.17147688  0.20421870  0.53094862
   0.64098865  0.70443872  0.45481558
   0.43678778  0.40976848  0.38641325
   0.57385371  0.05986121  0.57169081
   0.15143775  0.59340802  0.38895836
   0.26773979  0.60233753  0.39230630
   0.44025846  0.32219818  0.47032443
   0.23800967  0.15851113  0.42990119
   0.07278014  0.15030794  0.56259608
   0.84474358  0.54430963  0.59985245
   0.62117943  0.27993988  0.41090545
   0.60266699  0.89152667  0.46722346
   0.03138539  0.19528983  0.38899188
   0.60785740  0.19559498  0.54734670
   0.13279973  0.93835464  0.47948708
   0.08027261  0.28039530  0.51156809
   0.37196632  0.10709551  0.56834637
   0.06681329  0.69688417  0.53559522
   0.66648838  0.41538488  0.43001156
   0.79950785  0.72992838  0.56409587
   0.70383856  0.95720843  0.47018456
   0.59948638  0.63637634  0.55246715
   0.72284030  0.29368465  0.45166811
   0.97757921  0.31416476  0.54726081
   0.15860263  0.63020337  0.57074783
   0.63333384  0.32678308  0.50780070
   0.81887554  0.39647919  0.60636577
   0.95857820  0.02724304  0.41695300
   0.28198416  0.19513855  0.51861911
   0.24925755  0.44303289  0.46105570
   0.27346547  0.85094217  0.56937784
   0.20366815  0.68557317  0.48688872
   0.14712345  0.47606988  0.49254493
   0.22448957  0.42272553  0.55658034
   0.91141698  0.45274460  0.47371881
   0.86978818  0.70456011  0.46415352
   0.73812021  0.09283462  0.44522965
   0.22218344  0.92978119  0.40794682
   0.25496324  0.40253076  0.64828666
   0.63044823  0.88349282  0.59335851
   0.41022327  0.78906239  0.42343739
   0.91777135  0.19603829  0.50824515
   0.13254706  0.44353611  0.33227266
   0.15514768  0.30352326  0.31056042
   0.37300515  0.13090704  0.34795342
   0.03457593  0.29205334  0.63342215
   0.57268926  0.25686819  0.32009968
   0.24641736  0.77029551  0.65009024
   0.20737430  0.64840505  0.31036906
   0.27537441  0.39219130  0.36737583
   0.36535081  0.59758663  0.34222079
   0.22638085  0.05618082  0.35811888
   0.24120333  0.19607823  0.32934297
   0.50127293  0.89230162  0.45484168
   0.55006980  0.82794903  0.53437837
   0.54491427  0.64572309  0.63350023
   0.47802776  0.12456949  0.59667891
   0.26267388  0.69531801  0.56831671
   0.44144606  0.85049824  0.58066174
   0.76543369  0.61703921  0.64964616
   0.84489844  0.83195244  0.62299692
   0.64029058  0.73985710  0.62131388
   0.00816917  0.03348685  0.60296535
   0.28373338  0.00391962  0.59328326
   0.50229465  0.97400124  0.62869025
   0.43276671  0.45741327  0.73164487
   0.08322528  0.60642030  0.40641308
   0.40933424  0.76828328  0.57369384
   0.84176382  0.44145312  0.46783897
   0.01708949  0.99048204  0.39361135
   0.01470021  0.28419027  0.39108141
   0.00927336  0.11509490  0.57252859
   0.60968334  0.65816691  0.61069097
   0.21399119  0.47613712  0.50966545
   0.91506213  0.75556094  0.49625454
   0.52057854  0.11045563  0.42598659
   0.41802168  0.17142813  0.58954264
   0.08345253  0.13917208  0.40698087
   0.70189793  0.04484625  0.48732303
   0.66505935  0.89803746  0.43747644
   0.65009874  0.50402706  0.43015089
   0.19846065  0.91248223  0.46399069
   0.21544988  0.36708072  0.60373512
   0.67370084  0.81390821  0.59472375
   0.21693159  0.64199256  0.53860702
   0.36878912  0.73512773  0.45920930
   0.79753384  0.88874317  0.59567442
   0.87985655  0.91232410  0.51198655
   0.57732597  0.57548051  0.51248453
   0.58986920  0.11555740  0.52523206
   0.85812234  0.15211323  0.49517595
   0.83538157  0.60382988  0.64590857
   0.13373852  0.36031890  0.35687228
   0.79065529  0.27993925  0.44187265
   0.39917610  0.17749484  0.39600320
   0.85602697  0.75034191  0.59651630
   0.28302015  0.93573673  0.54973677
   0.02307473  0.33044751  0.50224551
   0.57455938  0.69549008  0.43556436
   0.23024095  0.75260050  0.45196954
   0.59378914  0.28389029  0.54812097
   0.97513703  0.27232864  0.60267180
   0.88890636  0.02540900  0.42420019
   0.10467876  0.19552144  0.51776375
   0.04814566  0.73303709  0.48263019
   0.23194231  0.20604504  0.56102716
   0.56140781  0.25778527  0.38122611
   0.47618798  0.63090516  0.62005276
   0.28214609  0.77094935  0.59781787
   0.20850083  0.64339984  0.37179454
   0.74046094  0.71108932  0.53581830
   0.98661064  0.99067936  0.55036152
   0.70310456  0.73681815  0.43426040
   0.78784967  0.05955628  0.57676548
   0.45631390  0.32845159  0.40928789
   0.44851882  0.93894214  0.59424943
   0.50795962  0.04339759  0.58644116
   0.24424715  0.37040632  0.42094710
   0.65852534  0.33000211  0.45034791
   0.46054473  0.31913866  0.52900683
   0.33729937  0.58994254  0.39908301
   0.80308159  0.47633628  0.57999632
   0.06920979  0.89885916  0.48050551
   0.21190758  0.14445432  0.37359659
   0.07823286  0.49398499  0.49468762
   0.55757019  0.85234010  0.47473025
   0.71840929  0.58499460  0.60952816
   0.28664212  0.21010174  0.45911077
   0.08840825  0.62563348  0.56767255
   0.35264151  0.02161981  0.57810198
   0.48693938  0.48202877  0.57390570
   0.47933134  0.50530357  0.69411588

 position of ions in cartesian coordinates  (Angst):
  15.45902474  7.59429396 19.21862675
  12.88128407  9.39029760 21.31387904
  12.67038477  9.52761924 19.83141144
  16.02698736  7.75369078 20.42164507
  17.81007784  1.88010480 17.50366402
  21.68887124  5.04982630  9.57948250
  18.57310935  3.75615001 10.03976840
  22.81522226 17.09935504  8.74523415
  14.64921175 17.45931981 10.08747787
  19.20986618 18.03075152  9.91976410
  17.55830880  2.55833368 12.31360861
  21.43225424  4.52059723 13.68709780
  13.66032332  5.51363181  8.22435231
  20.86021474  6.05776983 16.56381352
  13.94846844  6.56930328 16.48775431
  13.89455872 15.78316502 15.53389063
   0.77717829  6.10940253 17.55303436
  21.89589338  7.60211669 12.20777585
  17.46806539  9.60990927 11.35790489
  18.69260211  6.97102019 17.11910734
  13.83846346 10.30523625 10.16284657
  16.81946503 11.70510106 10.30871170
  19.69247867  9.82944087 11.28015755
   0.11154425 10.94156933  9.61828518
  19.39294954 12.90878407 12.57986315
  20.53764852 10.85214655 19.39199472
  12.17364643 17.85965257 11.33679820
   5.22293275 17.76161801 10.57067472
   5.06558822  4.31016263  8.58198589
   3.68730349  5.97649684  7.50000000
   7.99605454  2.81940543  8.89228530
   5.21406665  0.82920834  8.67629559
  11.96683069 14.98492141 14.70277431
   8.63527759  4.24797235 17.41956489
   5.69546068  1.69339721 16.09830536
   7.38347683  8.82751530 11.89413327
   9.57419369  7.95041833 10.90632902
   9.32938926 14.37219961 10.45189795
   5.71709332 11.87720376  7.91249741
   7.29826932  7.58329756  9.92688859
   9.49267817 10.58787004  9.10861924
   3.26254231  8.84268607  9.46104865
  13.88920341 12.64839014  9.47364424
  10.98005707 15.61013128 11.93160111
   2.87796899  5.87695511 16.49405281
   1.73806675 12.02708556 17.37400046
   5.73967323  7.04708800 18.33635547
   5.80520752 14.76037691 18.02263345
  14.94093678  6.67135390 18.94686081
  15.48071015  8.38522498 18.46653257
  13.83364188  8.87945259 21.53064344
  12.05839920  8.83313673 21.78376900
  12.93509202 10.39093084 21.77869466
  13.46313217 10.06867107 19.27878609
  16.53993081  8.67967815 20.69803952
  15.98782352  6.97049665 21.18345653
   8.63740362 11.74899635 11.80179838
   8.11940335  9.13371715 11.30144811
  20.14880919 10.26095810 18.73044125
   8.16170599 17.40256301 14.26247720
   0.78458599 16.89936426 14.20947662
  14.89790566  1.42919560 13.15609244
   1.60709516  0.94711408 10.62190669
  10.57955331  2.34782959 11.30707087
  18.86679123  3.87160553 12.98914499
  22.78118726  3.28962776 16.09670436
   6.43261122  5.42138248 12.05751853
  13.02497128 14.04561294 11.87575437
   9.15021609 17.67487218 16.65709541
   4.15590840  6.34186119 10.89510594
  20.28238523 12.40096923 17.13438109
  20.26706432 17.52644236 12.55556607
   7.04790320 13.78911669 12.31057251
   9.87045805  4.73421333 10.20482654
  18.99387101  8.42166221 13.99036260
  23.02755179  1.31878640 14.01267866
  11.91716798  8.39887977 16.97627090
   0.80854198 16.67059137 11.54385891
  22.54593219  5.49427402  9.44298747
   1.63005096  6.09065222 10.11814055
   4.87647100 13.20393591 10.62861051
   0.91072893  7.59464512 13.41772355
   5.61621117  5.18381301 15.80063825
   9.30318595  3.54807347 17.35163449
  10.65153527 10.23028324 15.59941015
  21.30026929 13.57642949 14.98819983
  20.34739459  1.95787901 11.88993046
  13.40476402 12.09287863 10.11168720
   3.33439013  2.88355087 10.10739962
   8.22650293 13.86559466 16.30594061
  21.32759690 15.31330727 12.98949491
   1.43600223  9.72877939 11.88926245
  16.58313365 10.06030463 11.28987623
   1.76725442 14.80154965 12.98450890
  16.39878711 14.99633320 11.63069310
  17.09311569  0.88774864 14.59770702
  21.51389167  5.47310554 16.99353867
  17.20909690 15.46504981 16.47690438
  14.63491423  9.55703168 13.07549710
  13.03010146 11.41099800 12.56123752
   9.95522459  4.51247004 14.94694213
  22.90303759 13.19667544 12.81787194
  15.31059211 10.76932587 17.02545706
   9.27922054 13.55802247 13.84321348
  14.10975474  9.38073831 10.36813464
  16.85751511 11.44009769 14.97521081
   3.47477841  6.61378188 16.70969008
   1.55932548  9.94202721 14.56953240
  19.17175688 16.03360081 14.42679835
  19.38959778  6.44001838 12.14868300
  12.35059191  5.39821073 14.30183067
  17.24551878  9.05155977 16.00677823
  13.05025009  3.12466491 10.61647095
  18.86866258  4.64651294 10.30420244
   5.55892333 17.27408272 13.65458756
  16.22247047 14.07146474 14.56000338
  21.63024923 17.21076064 14.86481530
  12.30818899  5.75858696 10.71452528
  10.94266411 18.00853198 14.68617385
  19.61111647  1.71869086 14.51089060
  12.59301152  2.10962891 13.07168996
   8.19848185  3.38158105 11.81890631
   0.27532438 17.44013032  9.01248080
  10.53544957 10.89833845 18.10290027
  15.33358375 16.76934745 10.19493214
   1.78612593 12.43164436 11.71794928
  10.63555038  7.35358030 14.86596022
  16.83785811 12.69249221 10.20446890
  10.62288509 12.84050644 16.04782326
  17.61819454 12.85383870 12.80442605
  18.22590792  2.19540227 16.68681464
  23.25384464  5.58158513 12.05458163
  12.57640641  9.21415065 14.39166122
  19.12182067  9.04361594 11.38355200
   5.52396436  2.63928286 16.27800361
   4.76497818 15.05333538 12.64952801
   5.61998562 10.12907843 14.05763842
   1.43677925 11.33407236 16.76869090
   1.07865368 10.91526713  9.52151395
  18.74955465 17.73947917 16.28694691
  12.59506368  0.50191281 10.87439573
  14.19855732  5.65788334 16.26363170
  20.16990973  0.07395004  9.92550906
   2.22199659  2.70047811 12.55674536
   4.01449579  3.70069540 14.27368640
  15.00637423 12.76530096 12.22697399
  10.22576747  7.42551173 10.38808912
  13.43465835  1.08475914 15.36897361
   3.54535369 10.75328740 10.45651017
   6.26813510 10.91510113 10.54651395
  10.30702050  5.83862960 12.64390410
   5.57211440  2.87241773 11.55719116
   1.70387726  2.72376578 15.12447649
  19.77654087  9.86356376 16.12605338
  14.54261459  5.07285683 11.04652184
  14.10921452 16.15556596 12.56053950
   0.73477264  3.53889327 10.45741115
  14.23072876  3.54442303 14.71452204
   3.10901351 17.00414686 12.89022683
   1.87928581  5.08110970 13.75267246
   8.70821317  1.94070305 15.27906369
   1.56418564 12.62840311 14.39860254
  15.60335581  7.52728779 11.56015827
  18.71751374 13.22720507 15.16479601
  16.47777184 17.34580083 12.64014391
  14.03475232 11.53192643 14.85217690
  16.92262720  5.32192920 12.14235921
  22.88639477  5.69305414 14.71221303
   3.71309298 11.42006455 15.34362298
  14.82716522  5.92171361 13.65139239
  19.17093660  7.18469333 16.30115324
  22.44155659  0.49367766 11.20910044
   6.60161435  3.53615194 13.94222752
   5.83544193  8.02830396 12.39472924
   6.40218078 15.42012464 15.30679313
   4.76813504 12.42343385 13.08920785
   3.44435051  8.62697504 13.24126574
   5.25559135  7.66030945 14.96275328
  21.33745138  8.20429214 12.73515651
  20.36286723 12.76750071 12.47800922
  17.28034963  1.68227812 11.96927179
   5.20160188 16.84878525 10.96698378
   5.96901946  7.29435535 17.42812784
  14.75960935 16.00998271 15.95147429
   9.60385771 14.29878657 11.38342242
  21.48621551  3.55245637 13.66334053
   3.10309823  8.03742301  8.93260776
   3.63220806  5.50021683  8.34890949
   8.73253334  2.37219755  9.35415932
   0.80946724  5.29236769 17.02851985
  13.40739699  4.65476936  8.60535697
   5.76894949 13.95870738 17.47661418
   4.85490080 11.74990154  8.34376522
   6.44687148  7.10699146  9.87629901
   8.55333550 10.82900896  9.20004704
   5.29986877  1.01806602  9.62744117
   5.64688233  3.55318002  8.85384768
  11.73544815 16.16960912 12.22767567
  12.87784619 15.00346047 14.36588946
  12.75714853 11.70130114 17.03061893
  11.19124872  2.25735329 16.04073793
   6.14953560 12.60002242 15.27826635
  10.33482386 15.41208010 15.61014240
  17.91979359 11.18151382 17.46467587
  19.78016623 15.07600729 16.74825442
  14.99003137 13.40712578 16.70300876
   0.19125089  0.60682312 16.20973840
   6.64256580  0.07102842 15.94945142
  11.75936793 17.65010732 16.90131033
  10.13162905  8.28889426 19.66907712
   1.94841153 10.98908596 10.92575188
   9.58304459 13.92224338 15.42282174
  19.70678074  7.99967650 12.57708649
   0.40008717 17.94875972 10.58159830
   0.34415087  5.14987929 10.51358498
   0.21710141  2.08566192 15.39149601
  14.27347622 11.92679854 16.41742908
   5.00981083  8.62819353 13.70152308
  21.42278905 13.69169878 13.34099278
  12.18741762  2.00159257 11.45195358
   9.78642878  3.10648975 15.84889074
   1.95373172  2.52197018 10.94101594
  16.43233932  0.81266960 13.10088356
  15.56990047 16.27354966 11.76083937
  15.21965321  9.13359373 11.56390395
   4.64622068 16.53530673 12.47363180
   5.04396066  6.65195672 16.23043239
  15.77220880 14.74902346 15.98817649
   5.07864934 11.63369926 14.47957005
   8.63383069 13.32142384 12.34509184
  18.67129959 16.10512566 16.01373384
  20.59858094 16.53244117 13.76392216
  13.51594845 10.42841864 13.77730953
  13.80960159  2.09404308 14.12000588
  20.08975493  2.75647992 13.31199648
  19.55736396 10.94214427 17.36419681
   3.13099191  6.52942423  9.59392828
  18.51026388  5.07284540 11.87902451
   9.34522920  3.21642612 10.64589911
  20.04069958 13.59712356 16.03636625
   6.62586821 16.95670706 14.77877516
   0.54020935  5.98811771 13.50205012
  13.45117902 12.60314055 11.70943634
   5.39023881 13.63805192 12.15046292
  13.90137251  5.14444316 14.73533692
  22.82922022  4.93493181 16.20184694
  20.81044864  0.46044249 11.40392910
   2.45066519  3.54309043 13.91923264
   1.12715225 13.28353886 12.97472440
   5.43006984  3.73379107 15.08229869
  13.14328356  4.67138795 10.24864117
  11.14817708 11.43278184 16.66910566
   6.60540512 13.97055591 16.07135690
   4.88127424 11.65920103  9.99508876
  17.33514921 12.88581800 14.40459987
  23.09783232 17.95233550 14.79557050
  16.46058793 13.35205634 11.67438144
  18.44458070  1.07923346 15.50539786
  10.68289909  5.95194918 11.00303640
  10.50040631 17.01479292 15.97542516
  11.89199225  0.78641804 15.76551271
   5.71814202  6.71222076 11.31647527
  15.41693082  5.98004644 12.10686792
  10.78194831  5.78318731 14.22148458
   7.89661487 10.69048858 10.72869482
  18.80117959  8.63180257 15.59225355
   1.62029077 16.28843974 12.91760565
   4.96103075  2.61769098 10.04353415
   1.83153245  8.95161914 13.29886860
  13.05343995 15.44545689 12.76234739
  16.81889164 10.60082576 16.38616899
   6.71066321  3.80730338 12.34244318
   2.06975156 11.33725246 15.26094917
   8.25579422  0.39177772 15.54132733
  11.39988123  8.73495759 15.42851719
  11.22176712  9.15672573 18.66017164



--------------------------------------------------------------------------------------------------------


 k-point  1 :   0.0000 0.0000 0.0000  plane waves:  289505
 k-point  2 :   0.3333 0.0000 0.0000  plane waves:  289422
 k-point  3 :   0.0000 0.3333 0.0000  plane waves:  289550
 k-point  4 :   0.3333 0.3333 0.0000  plane waves:  289551
 k-point  5 :  -0.3333 0.3333 0.0000  plane waves:  289551

 maximum and minimum number of plane-waves per node :     72451    72309

 maximum number of plane-waves:    289551
 maximum index in each direction: 
   IXMAX=   43   IYMAX=   33   IZMAX=   49
   IXMIN=  -43   IYMIN=  -33   IZMIN=  -49


 real space projection operators:
  total allocation   :      13783.06 KBytes
  max/ min on nodes  :       3448.02       3443.98


 parallel 3D FFT for wavefunctions:
    minimum data exchange during FFTs selected (reduces bandwidth)
 parallel 3D FFT for charge:
    minimum data exchange during FFTs selected (reduces bandwidth)


 total amount of memory used by VASP MPI-rank0   697381. kBytes
=======================================================================

   base      :      30000. kBytes
   nonlr-proj:      16945. kBytes
   fftplans  :      30982. kBytes
   grid      :      57864. kBytes
   one-center:       1073. kBytes
   wavefun   :     560517. kBytes

     INWAV:  cpu time    0.0001: real time    0.0000
 Broyden mixing: mesh for mixing (old mesh)
   NGX = 85   NGY = 67   NGZ = 99
  (NGX  =256   NGY  =200   NGZ  =300)
  gives a total of 563805 points

 initial charge density was supplied:
 charge density of overlapping atoms calculated
 number of electron    1258.0000000 magnetization 
 keeping initial charge density in first step


--------------------------------------------------------------------------------------------------------


 Maximum index for non-local projection operator          659
 Maximum index for augmentation-charges          449 (set IRDMAX)


--------------------------------------------------------------------------------------------------------


 First call to EWALD:  gamma=   0.079
 Maximum number of real-space cells 3x 3x 2
 Maximum number of reciprocal cells 3x 2x 3

    FEWALD:  cpu time    0.0250: real time    0.0251


--------------------------------------- Iteration      1(   1)  ---------------------------------------


    POTLOK:  cpu time    0.2882: real time    0.2945
    SETDIJ:  cpu time    0.5910: real time    0.5930
     EDDAV:  cpu time   80.2667: real time   80.5681
       DOS:  cpu time    0.0036: real time    0.0036
    --------------------------------------------
      LOOP:  cpu time   81.1495: real time   81.4592

 eigenvalue-minimisations  :  8592
 total energy-change (2. order) : 0.1288309E+05  (-0.4955652E+05)
 number of electron    1258.0000000 magnetization 
 augmentation part     1258.0000000 magnetization 

 DIPCOR: dipole corrections for dipol
 direction  3 min pos    73,
 dipolmoment           0.000000      0.000000      2.410747 electrons x Angstroem
 Tr[quadrupol]    -94922.927947

 energy correction for charged system         0.000000 eV
 dipol+quadrupol energy correction           -0.047252 eV
 added-field ion interaction        312.885659 eV  (added to PSCEN)


 Free energy of the ion-electron system (eV)
  ---------------------------------------------------
  alpha Z        PSCENC =       803.00135962
  Ewald energy   TEWEN  =    308839.42496824
  -Hartree energ DENC   =   -371066.12179043
  -exchange      EXHF   =         0.00000000
  -V(xc)+E(xc)   XCENC  =      3777.02595791
  PAW double counting   =     59955.48764796   -58973.29898038
  entropy T*S    EENTRO =        -1.70150438
  eigenvalues    EBANDS =     -5157.96656400
  atomic energy  EATOM  =     74707.24229009
  Solvation  Ediel_sol  =         0.00000000
  ---------------------------------------------------
  free energy    TOTEN  =     12883.09338461 eV

  energy without entropy =    12884.79488900  energy(sigma->0) =    12883.94413681


--------------------------------------------------------------------------------------------------------




--------------------------------------- Iteration      1(   2)  ---------------------------------------


     EDDAV:  cpu time   96.2607: real time   96.6111
       DOS:  cpu time    0.0013: real time    0.0013
    --------------------------------------------
      LOOP:  cpu time   96.2620: real time   96.6124

 eigenvalue-minimisations  : 10720
 total energy-change (2. order) :-0.1226514E+05  (-0.1187583E+05)
 number of electron    1258.0000000 magnetization 
 augmentation part     1258.0000000 magnetization 

 DIPCOR: dipole corrections for dipol
 direction  3 min pos    73,
 dipolmoment           0.000000      0.000000      2.410747 electrons x Angstroem
 Tr[quadrupol]    -94922.927947

 energy correction for charged system         0.000000 eV
 dipol+quadrupol energy correction           -0.047252 eV
 added-field ion interaction        312.885659 eV  (added to PSCEN)


 Free energy of the ion-electron system (eV)
  ---------------------------------------------------
  alpha Z        PSCENC =       803.00135962
  Ewald energy   TEWEN  =    308839.42496824
  -Hartree energ DENC   =   -371066.12179043
  -exchange      EXHF   =         0.00000000
  -V(xc)+E(xc)   XCENC  =      3777.02595791
  PAW double counting   =     59955.48764796   -58973.29898038
  entropy T*S    EENTRO =        -0.00000000
  eigenvalues    EBANDS =    -17424.80949528
  atomic energy  EATOM  =     74707.24229009
  Solvation  Ediel_sol  =         0.00000000
  ---------------------------------------------------
  free energy    TOTEN  =       617.95195772 eV

  energy without entropy =      617.95195772  energy(sigma->0) =      617.95195772


--------------------------------------------------------------------------------------------------------




--------------------------------------- Iteration      1(   3)  ---------------------------------------


     EDDAV:  cpu time   82.8968: real time   83.2248
       DOS:  cpu time    0.0012: real time    0.0012
    --------------------------------------------
      LOOP:  cpu time   82.8981: real time   83.2260

 eigenvalue-minimisations  :  8920
 total energy-change (2. order) :-0.2634987E+04  (-0.2625327E+04)
 number of electron    1258.0000000 magnetization 
 augmentation part     1258.0000000 magnetization 

 DIPCOR: dipole corrections for dipol
 direction  3 min pos    73,
 dipolmoment           0.000000      0.000000      2.410747 electrons x Angstroem
 Tr[quadrupol]    -94922.927947

 energy correction for charged system         0.000000 eV
 dipol+quadrupol energy correction           -0.047252 eV
 added-field ion interaction        312.885659 eV  (added to PSCEN)


 Free energy of the ion-electron system (eV)
  ---------------------------------------------------
  alpha Z        PSCENC =       803.00135962
  Ewald energy   TEWEN  =    308839.42496824
  -Hartree energ DENC   =   -371066.12179043
  -exchange      EXHF   =         0.00000000
  -V(xc)+E(xc)   XCENC  =      3777.02595791
  PAW double counting   =     59955.48764796   -58973.29898038
  entropy T*S    EENTRO =        -0.00000000
  eigenvalues    EBANDS =    -20059.79678517
  atomic energy  EATOM  =     74707.24229009
  Solvation  Ediel_sol  =         0.00000000
  ---------------------------------------------------
[...]
     18.99384      8.42263     13.98998        -0.000978      0.000256     -0.002484
     23.02725      1.31883     14.01268        -0.004779      0.006699     -0.003376
     11.91413      8.39905     16.97581        -0.005894      0.002779     -0.003095
      0.80854     16.67059     11.54386        -0.109650      0.443358     -0.290541
     22.54593      5.49427      9.44299         0.185297     -0.186463      0.415236
      1.63005      6.09065     10.11814         0.291458     -0.134850     -0.026318
      4.87647     13.20394     10.62861         0.417246     -0.167728      0.419645
      0.91073      7.59465     13.41772         0.445501      0.055515      0.185973
      5.61752      5.18419     15.80099         0.001891      0.002533      0.002579
      9.30473      3.54944     17.35112         0.006819     -0.002235      0.003840
     10.65200     10.23258     15.59911        -0.014231      0.009008     -0.000306
     21.29988     13.57636     14.98741         0.005626      0.002949     -0.009133
     20.34739      1.95788     11.88993        -0.086843     -0.043127      0.435476
     13.40476     12.09288     10.11169        -0.261030      0.189129      0.098790
      3.33439      2.88355     10.10740        -0.032092     -0.059481      0.193383
      8.22588     13.86571     16.30570        -0.006904      0.006965      0.004790
     21.32760     15.31331     12.98949         0.320592     -1.486034      0.195286
      1.43600      9.72878     11.88926         0.535571      0.262527      0.066818
     16.58313     10.06030     11.28988        -0.108412     -0.556894     -0.039217
      1.76725     14.80155     12.98451        -0.029465     -6.355798      0.308067
     16.39879     14.99633     11.63069         1.818659     -3.820532     -0.207848
     17.09396      0.88760     14.59743         0.007466      0.008016      0.014966
     21.51368      5.47312     16.99350        -0.004381      0.003211     -0.004103
     17.20912     15.46554     16.47753        -0.004272      0.000388     -0.000607
     14.63491      9.55703     13.07550         1.898706     -1.191327     -1.259844
     13.03010     11.41100     12.56124        -3.549459     -2.955640      1.918747
      9.95492      4.51187     14.94731         0.001801     -0.001707      0.002480
     22.90304     13.19668     12.81787         0.414093      0.294893      0.249382
     15.31232     10.76993     17.02593         0.002293     -0.009331      0.003268
      9.28017     13.55613     13.84291        -0.003102     -0.004125     -0.017684
     14.10975      9.38074     10.36813         0.279197     -0.126714      0.369957
     16.85737     11.44044     14.97497         0.002349      0.004449     -0.001156
      3.47458      6.61452     16.71004        -0.001070     -0.002792     -0.003271
      1.55930      9.94164     14.56964         0.001600     -0.000045      0.004627
     19.17190     16.03334     14.42706         0.005025     -0.000676      0.004002
     19.38960      6.44002     12.14868        -0.135547      0.247501      0.185817
     12.35045      5.39889     14.30257         0.005445      0.008351      0.002029
     17.24553      9.05057     16.00672         0.003447     -0.010557     -0.006530
     13.05025      3.12466     10.61647        -1.372791     -1.819770      0.522781
     18.86866      4.64651     10.30420        -0.043056     -0.025823      0.757935
      5.55892     17.27408     13.65459        -0.815061      0.168141     -0.952775
     16.22255     14.07176     14.55905        -0.000847      0.004701     -0.000559
     21.63006     17.21161     14.86445        -0.005467     -0.002232     -0.005021
     12.30819      5.75859     10.71453        -7.867586      6.653310      3.186847
     10.94244     18.00840     14.68650         0.001301     -0.004070      0.007517
     19.61150      1.71898     14.51086        -0.000983      0.002991      0.000488
     12.59301      2.10963     13.07169        -2.063629      0.602170     -1.044817
      8.19848      3.38158     11.81891        -0.114563      0.162336      0.038013
      0.27532     17.44013      9.01248        -0.251358      0.114487      0.324929
     10.53438     10.89959     18.10358        -0.003847      0.019389     -0.014252
     15.33358     16.76935     10.19493        -0.564359      0.124100      0.626181
      1.78613     12.43164     11.71795         0.013770     -0.130867      0.096562
     10.63638      7.35286     14.86530         0.000353     -0.012231     -0.005418
     16.83786     12.69249     10.20447        -0.048262      0.277684      0.488725
     10.62267     12.84222     16.04851         0.002914      0.001488     -0.003930
     17.61819     12.85384     12.80443        -0.376231      0.257487     -1.084890
     18.22636      2.19513     16.68695        -0.002310      0.009069     -0.008501
     23.25384      5.58159     12.05458         0.242715      0.007304     -0.016411
     12.57413      9.21295     14.38792        -0.000181     -0.004258     -0.025088
     19.12182      9.04362     11.38355         0.332329     -0.394292      0.464803
      5.52349      2.63906     16.27830        -0.001608      0.002181     -0.004652
      4.76498     15.05334     12.64953         0.594943     -6.675445      0.334156
      5.61928     10.12945     14.05768        -0.010591     -0.023288     -0.014872
      1.43676     11.33410     16.76767         0.000376      0.001411      0.000244
      1.07865     10.91527      9.52151         0.185689      0.219506      0.437073
     18.74975     17.73934     16.28684        -0.000670     -0.003601     -0.000880
     12.59506      0.50191     10.87440        -0.219762      0.379780      0.164448
     14.19788      5.65914     16.26370        -0.005967      0.007793      0.002644
     20.16991      0.07395      9.92551        -0.068774      0.004853      0.298374
      2.22200      2.70048     12.55675        -0.036417     -0.047968     -0.773759
      4.01342      3.69858     14.27347         0.000423     -0.007669      0.003470
     15.00637     12.76530     12.22697         2.660539      0.218161     -0.637464
     10.22577      7.42551     10.38809         0.260226     -0.701003      0.514851
     13.43378      1.08582     15.36848         0.001918      0.005864     -0.005306
      3.54535     10.75329     10.45651        -0.003321      0.699156      0.080249
      6.26814     10.91510     10.54651         0.155351      0.307904      0.038245
     10.30702      5.83863     12.64390         0.387954      0.132512     -0.611957
      5.57211      2.87242     11.55719         0.324908      0.282062     -0.363300
      1.70381      2.72376     15.12436        -0.000053     -0.005288      0.005122
     19.77643      9.86286     16.12634         0.002252     -0.018601     -0.008229
     14.54261      5.07286     11.04652         1.389208      0.652121      0.845076
     14.10921     16.15557     12.56054        23.541115     14.637084     -4.518607
      0.73477      3.53889     10.45741         0.414577      0.156916      0.271754
     14.23155      3.54403     14.71357         0.003269      0.007494      0.008611
      3.10901     17.00415     12.89023         0.020278     -0.149172     -0.332667
      1.87924      5.08138     13.75295        -0.019515      0.015460     -0.004159
      8.70658      1.94081     15.27683        -0.006356     -0.005617     -0.005486
      1.56410     12.62843     14.39932        -0.006765     -0.004778      0.000790
     15.60336      7.52729     11.56016        -0.326268      0.202298      0.452801
     18.71587     13.22833     15.16491        -0.003802     -0.000423     -0.004885
     16.47777     17.34580     12.64014        -0.778683      0.364142     -0.212554
     14.03368     11.53143     14.85287        -0.010123     -0.005703     -0.001909
     16.92263      5.32193     12.14236         0.239289      0.053903     -0.021916
     22.88603      5.69253     14.71141         0.006052      0.006886      0.010172
      3.71350     11.42139     15.34389         0.006880     -0.003239     -0.000458
     14.82717      5.92171     13.65139         0.387798      0.274487     -0.760526
     19.17143      7.18443     16.30123        -0.009582      0.001470     -0.005351
     22.44156      0.49368     11.20910        -0.299437     -0.372876     -0.325800
      6.60195      3.53506     13.94245        -0.005870      0.000926      0.008387
      5.83544      8.02830     12.39473        -0.027797     -0.695655     -0.629754
      6.40211     15.42005     15.30711        -0.000967     -0.007198      0.009167
      4.76814     12.42343     13.08921         0.250858      0.543084     -0.385918
      3.44435      8.62698     13.24127        -0.305989      0.092331      0.175873
      5.25553      7.65986     14.96306         0.003722     -0.002658      0.002612
     21.33745      8.20429     12.73516        -0.253330     -0.139011     -0.141221
     20.36287     12.76750     12.47801         0.322733      0.273839      0.438371
     17.28035      1.68228     11.96927        -0.175510     -0.268934      0.482006
      5.20160     16.84879     10.96698        -0.330059      0.368159      0.366405
      5.97024      7.29513     17.42805         0.005684      0.004613     -0.018970
     14.75959     16.00920     15.95152         0.003123     -0.001062      0.008827
      9.60386     14.29879     11.38342        -0.515807     -0.398674      0.238435
     21.48622      3.55246     13.66334        -0.761311     -0.028529     -0.113339
      3.10310      8.03742      8.93261         0.096610     -0.242689      0.314937
      3.63221      5.50022      8.34891        -0.160791      0.543436      0.356752
      8.73253      2.37220      9.35416         0.191629      0.605326      0.343923
      0.80937      5.29237     17.02932        -0.020985     -0.021384     -0.010473
     13.40740      4.65477      8.60536        -0.202090      0.162109      0.215941
      5.76883     13.95836     17.47838         0.008984     -0.016912     -0.023373
      4.85490     11.74990      8.34377         0.077733     -0.131215      0.501462
      6.44687      7.10699      9.87630         0.023127      0.044843      0.702714
      8.55334     10.82901      9.20005        -0.083217     -0.025607      0.746816
      5.29987      1.01807      9.62744        -0.071950      0.790675      0.115349
      5.64688      3.55318      8.85385        -0.374816     -0.058417      0.451627
     11.73545     16.16961     12.22768        -2.216074      1.043302     -0.686066
     12.87756     15.00337     14.36576        -0.007939      0.000875      0.001425
     12.75835     11.70136     17.03217         0.017870      0.001154     -0.001789
     11.19164      2.25733     16.04045         0.035419      0.005952      0.001132
      6.15082     12.59938     15.27857         0.004834      0.011840      0.009868
     10.33510     15.41243     15.60963        -0.001886      0.008118      0.003689
     17.91920     11.18171     17.46447        -0.012963     -0.006407     -0.005560
     19.78003     15.07580     16.74858        -0.009112      0.014473     -0.006980
     14.99030     13.40762     16.70254         0.005452      0.007445     -0.004138
      0.19090      0.60648     16.21020        -0.000362     -0.000690      0.018783
      6.64264      0.07031     15.94909        -0.003000     -0.005355     -0.007534
     11.75936     17.64830     16.90130        -0.002771     -0.003514     -0.002113
     10.12982      8.28905     19.66970        -0.015446     -0.011626      0.004184
      1.94841     10.98909     10.92575        -0.061933     -0.138261      0.049593
      9.58360     13.92209     15.42300         0.005369     -0.003029      0.004832
     19.70678      7.99968     12.57709         0.124494     -0.186852     -0.224007
      0.40009     17.94876     10.58160         0.099529     -0.140954      0.316620
      0.34415      5.14988     10.51358         0.045940      0.033652      0.069470
      0.21680      2.08563     15.39140        -0.002600     -0.007646     -0.004124
     14.27377     11.92684     16.41794        -0.001928     -0.003922      0.004424
      5.00994      8.62791     13.70192         0.000538      0.004922     -0.000688
     21.42279     13.69170     13.34099         0.210624      0.243504     -0.624790
     12.18742      2.00159     11.45195         0.154419     -0.072618      0.481348
      9.78668      3.10517     15.84849        -0.004359      0.006275     -0.000540
      1.95373      2.52197     10.94102         0.074794     -0.118445      0.069618
     16.43234      0.81267     13.10088         0.103152     -0.093199     -0.312871
     15.56990     16.27355     11.76084        -0.470343      4.551736     -0.213904
     15.21965      9.13359     11.56390         0.078157      0.062521      0.226752
      4.64622     16.53531     12.47363        -0.717411      6.162946     -0.348022
      5.04432      6.65143     16.23094         0.001114     -0.000740     -0.003275
     15.77301     14.74945     15.98761        -0.004291      0.003135      0.003199
      5.07872     11.63385     14.47964        -0.002800      0.001589      0.003799
      8.63383     13.32142     12.34509        -0.414986      0.060128     -0.198690
     18.67151     16.10533     16.01374         0.009516     -0.000100      0.005572
     20.59836     16.53227     13.76394         0.000107     -0.004026      0.004238
     13.51502     10.42777     13.77734        -0.010954     -0.005745      0.010265
     13.80979      2.09538     14.11905        -0.003465      0.000008      0.001357
     20.08975      2.75648     13.31200        -0.177876     -0.004843     -0.430773
     19.55716     10.94185     17.36471         0.001258      0.007136      0.006489
      3.13099      6.52942      9.59393        -0.098783     -0.111768      0.056135
     18.51026      5.07285     11.87902        -0.267075      0.097918      0.088434
      9.34523      3.21643     10.64590        -0.141288     -0.318503      0.238212
     20.04127     13.59707     16.03719         0.000980     -0.003710      0.005896
      6.62616     16.95648     14.77854         0.003582      0.002664      0.002705
      0.54021      5.98812     13.50205         0.304933      0.187846     -0.398497
     13.45118     12.60314     11.70944         3.910945     -0.851277     -2.473509
      5.39024     13.63805     12.15046         0.152486     -0.592264      0.008348
     13.90156      5.14450     14.73521        -0.004554     -0.006450      0.002300
     22.82952      4.93499     16.20126         0.013679     -0.000829      0.002813
     20.81045      0.46044     11.40393         0.024935      0.043982      0.117079
      2.45062      3.54279     13.91915         0.008440     -0.005745     -0.002429
      1.12715     13.28354     12.97472        -0.117721     -0.573202     -0.245422
      5.43007      3.73322     15.08212         0.002092     -0.005392     -0.003158
     13.14328      4.67139     10.24864         8.342395     -5.360453     -3.578556
     11.14794     11.43384     16.67059        -0.004745      0.002931      0.009303
      6.60488     13.96994     16.07119        -0.004558      0.001199      0.006662
      4.88127     11.65920      9.99509         0.067971     -0.059890      0.026914
     17.33623     12.88587     14.40514         0.002806     -0.007493      0.007683
     23.09779     17.95193     14.79570        -0.001716     -0.003387     -0.003619
     16.46059     13.35206     11.67438        -0.697118     -1.356117      0.349476
     18.44544      1.07892     15.50574         0.002955     -0.001067      0.004552
     10.68290      5.95195     11.00304        -1.151151      0.542605      0.455749
     10.50036     17.01440     15.97522         0.003134      0.004605      0.002752
     11.89218      0.78589     15.76595        -0.005164      0.000328      0.001502
      5.71814      6.71222     11.31648         0.016907     -0.120138     -0.098089
     15.41693      5.98005     12.10687        -0.139706     -0.471448     -0.829792
     10.78200      5.78184     14.22132         0.001849      0.000630      0.002068
      7.89661     10.69049     10.72869        -0.134921     -0.074054     -0.050669
     18.80104      8.63153     15.59235        -0.000740      0.005108      0.007768
      1.62029     16.28844     12.91761        -0.326318      6.435000     -0.539683
      4.96103      2.61769     10.04353        -0.073578     -0.041235      0.069395
      1.83153      8.95162     13.29887         0.049934     -0.123394     -0.310918
     13.05344     15.44546     12.76235       -22.320900    -15.849253      4.728598
     16.82004     10.60080     16.38617         0.001978      0.010035      0.005316
      6.71066      3.80730     12.34244        -0.225563      0.004232     -0.767530
      2.07027     11.33671     15.26080         0.000727      0.000253     -0.001742
      8.25646      0.39118     15.54108         0.003410      0.000660     -0.000431
     11.39912      8.73591     15.42765         0.002043      0.002322      0.008109
     11.21888      9.15609     18.65992        -0.001501     -0.005131     -0.006146
 -----------------------------------------------------------------------------------
    total drift:                                0.120491      0.454614      0.142440


--------------------------------------------------------------------------------------------------------



  FREE ENERGIE OF THE ION-ELECTRON SYSTEM (eV)
  ---------------------------------------------------
  free  energy   TOTEN  =     -1886.30585130 eV

  energy  without entropy=    -1886.30585130  energy(sigma->0) =    -1886.30585130

 d Force = 0.1311350E-02[ 0.124E-03, 0.250E-02]  d Energy = 0.1273427E-02 0.379E-04
 d Force = 0.1406702E+01[ 0.140E+01, 0.141E+01]  d Ewald  = 0.1406703E+01-0.118E-05


--------------------------------------------------------------------------------------------------------


    POTLOK:  cpu time    0.8573: real time    0.8598


--------------------------------------------------------------------------------------------------------


 stress matrix after NEB project (eV)
    -33.03635      0.34028      0.33612
      0.34028    -33.35222     -0.02082
      0.33612     -0.02082    -25.18721
  FORCES: max atom, RMS     0.035934    0.008758
  FORCE total and by dimension    0.145494    0.035419
  Stress total and by dimension   53.278750   33.352225
 Quasi-Newton relaxation of ions (Broydens 2nd method)
  g(Force)  = 0.102E-02   g(Stress)= 0.000E+00

 retain information from N=  1 steps
 eigenvalues of (default step * inverse Hessian matrix)
  average eigenvalue of G=   0.2312
 eigenvalue spectrum of G is  0.2312


--------------------------------------------------------------------------------------------------------


  
 reached required accuracy - stopping structural energy minimisation
     LOOP+:  cpu time  178.8267: real time  179.5048
    4ORBIT:  cpu time    0.0000: real time    0.0000

 total amount of memory used by VASP MPI-rank0   697381. kBytes
=======================================================================

   base      :      30000. kBytes
   nonlr-proj:      16945. kBytes
   fftplans  :      30982. kBytes
   grid      :      57864. kBytes
   one-center:       1073. kBytes
   wavefun   :     560517. kBytes

  
  
 General timing and accounting informations for this job:
 ========================================================
  
                  Total CPU time used (sec):     3222.736
                            User time (sec):     3217.380
                          System time (sec):        5.357
                         Elapsed time (sec):     3235.712
  
                   Maximum memory used (kb):      997108.
                   Average memory used (kb):           0.
  
                          Minor page faults:      7809464
                          Major page faults:          135
                 Voluntary context switches:         6765
