ESCALE ; pCOHP file generated by LOBSTER. Energy is shifted such that the Fermi level lies at 0 eV.
        68          1        801  -2.34549e+01   1.65951e+01  -3.42990e+00 
Average
No.1:O205->W271(1.7214950734575565)
No.1:O205[2s]->W271[6s](1.7214950734575565)
No.1:O205[2s]->W271[5d_xy](1.7214950734575565)
No.1:O205[2s]->W271[5d_yz](1.7214950734575565)
No.1:O205[2s]->W271[5d_z^2](1.7214950734575565)
No.1:O205[2s]->W271[5d_xz](1.7214950734575565)
No.1:O205[2s]->W271[5d_x^2-y^2](1.7214950734575565)
No.1:O205[2p_y]->W271[6s](1.7214950734575565)
No.1:O205[2p_y]->W271[5d_xy](1.7214950734575565)
No.1:O205[2p_y]->W271[5d_yz](1.7214950734575565)
No.1:O205[2p_y]->W271[5d_z^2](1.7214950734575565)
No.1:O205[2p_y]->W271[5d_xz](1.7214950734575565)
No.1:O205[2p_y]->W271[5d_x^2-y^2](1.7214950734575565)
No.1:O205[2p_z]->W271[6s](1.7214950734575565)
No.1:O205[2p_z]->W271[5d_xy](1.7214950734575565)
No.1:O205[2p_z]->W271[5d_yz](1.7214950734575565)
No.1:O205[2p_z]->W271[5d_z^2](1.7214950734575565)
No.1:O205[2p_z]->W271[5d_xz](1.7214950734575565)
No.1:O205[2p_z]->W271[5d_x^2-y^2](1.7214950734575565)
No.1:O205[2p_x]->W271[6s](1.7214950734575565)
No.1:O205[2p_x]->W271[5d_xy](1.7214950734575565)
No.1:O205[2p_x]->W271[5d_yz](1.7214950734575565)
No.1:O205[2p_x]->W271[5d_z^2](1.7214950734575565)
No.1:O205[2p_x]->W271[5d_xz](1.7214950734575565)
No.1:O205[2p_x]->W271[5d_x^2-y^2](1.7214950734575565)
No.2:O204->W271(1.9558999168449571)
No.2:O204[2s]->W271[6s](1.9558999168449571)
No.2:O204[2s]->W271[5d_xy](1.9558999168449571)
No.2:O204[2s]->W271[5d_yz](1.9558999168449571)
No.2:O204[2s]->W271[5d_z^2](1.9558999168449571)
No.2:O204[2s]->W271[5d_xz](1.9558999168449571)
No.2:O204[2s]->W271[5d_x^2-y^2](1.9558999168449571)
No.2:O204[2p_y]->W271[6s](1.9558999168449571)
No.2:O204[2p_y]->W271[5d_xy](1.9558999168449571)
No.2:O204[2p_y]->W271[5d_yz](1.9558999168449571)
No.2:O204[2p_y]->W271[5d_z^2](1.9558999168449571)
No.2:O204[2p_y]->W271[5d_xz](1.9558999168449571)
No.2:O204[2p_y]->W271[5d_x^2-y^2](1.9558999168449571)
No.2:O204[2p_z]->W271[6s](1.9558999168449571)
No.2:O204[2p_z]->W271[5d_xy](1.9558999168449571)
No.2:O204[2p_z]->W271[5d_yz](1.9558999168449571)
No.2:O204[2p_z]->W271[5d_z^2](1.9558999168449571)
No.2:O204[2p_z]->W271[5d_xz](1.9558999168449571)
No.2:O204[2p_z]->W271[5d_x^2-y^2](1.9558999168449571)
No.2:O204[2p_x]->W271[6s](1.9558999168449571)
No.2:O204[2p_x]->W271[5d_xy](1.9558999168449571)
No.2:O204[2p_x]->W271[5d_yz](1.9558999168449571)
No.2:O204[2p_x]->W271[5d_z^2](1.9558999168449571)
No.2:O204[2p_x]->W271[5d_xz](1.9558999168449571)
No.2:O204[2p_x]->W271[5d_x^2-y^2](1.9558999168449571)
No.3:C2->O204(1.4199915690110303)
No.3:C2[2s]->O204[2s](1.4199915690110303)
No.3:C2[2s]->O204[2p_y](1.4199915690110303)
No.3:C2[2s]->O204[2p_z](1.4199915690110303)
No.3:C2[2s]->O204[2p_x](1.4199915690110303)
No.3:C2[2p_y]->O204[2s](1.4199915690110303)
No.3:C2[2p_y]->O204[2p_y](1.4199915690110303)
No.3:C2[2p_y]->O204[2p_z](1.4199915690110303)
No.3:C2[2p_y]->O204[2p_x](1.4199915690110303)
No.3:C2[2p_z]->O204[2s](1.4199915690110303)
No.3:C2[2p_z]->O204[2p_y](1.4199915690110303)
No.3:C2[2p_z]->O204[2p_z](1.4199915690110303)
No.3:C2[2p_z]->O204[2p_x](1.4199915690110303)
No.3:C2[2p_x]->O204[2s](1.4199915690110303)
No.3:C2[2p_x]->O204[2p_y](1.4199915690110303)
No.3:C2[2p_x]->O204[2p_z](1.4199915690110303)
No.3:C2[2p_x]->O204[2p_x](1.4199915690110303)
-20.02503   0.00000  -1.76245   0.00000  -0.04614   0.00000  -0.07765   0.00000   0.03408   0.00000  -0.00542   0.00000  -0.00755   0.00000   0.00984   0.00000  -0.00192   0.00000  -0.00349   0.00000   0.00348   0.00000  -0.00049   0.00000  -0.00078   0.00000   0.00219   0.00000  -0.00121   0.00000  -0.00043   0.00000   0.00099   0.00000   0.00050   0.00000  -0.00026   0.00000  -0.00094   0.00000  -0.00005   0.00000  -0.00434   0.00000   0.00693   0.00000  -0.00174   0.00000  -0.00112   0.00000   0.00201   0.00000   0.00120   0.00000  -1.23331   0.00000  -0.58046   0.00000  -0.20834   0.00000  -0.03568   0.00000  -0.07042   0.00000  -0.12356   0.00000  -0.10236   0.00000  -0.00745   0.00000   0.00581   0.00000   0.00051   0.00000  -0.00239   0.00000  -0.01229   0.00000  -0.01603   0.00000   0.01070   0.00000   0.01145   0.00000  -0.00111   0.00000   0.01011   0.00000  -0.00825   0.00000   0.00732   0.00000  -0.02953   0.00000  -0.03260   0.00000  -0.00834   0.00000  -0.00714   0.00000  -0.02570   0.00000  -0.00756   0.00000  -4.00791   0.00000  -1.30086   0.00000  -0.11458   0.00000  -0.16526   0.00000  -0.09343   0.00000  -0.46077   0.00000   0.01077   0.00000  -0.05014   0.00000  -0.02482   0.00000  -1.28131   0.00000  -0.09944   0.00000  -0.06629   0.00000  -0.08558   0.00000  -0.25159   0.00000  -0.01654   0.00000  -0.02963   0.00000   0.02156
-19.97497  -6.56542  -2.09114  -0.09547  -0.05092  -0.18190  -0.08676   0.09395   0.03878  -0.01472  -0.00615  -0.02704  -0.00890   0.03501   0.01159  -0.00989  -0.00242  -0.00722  -0.00385   0.00884   0.00393  -0.00117  -0.00054  -0.00257  -0.00091   0.00762   0.00257  -0.00839  -0.00163  -0.00079  -0.00047   0.00244   0.00112   0.00128   0.00056  -0.00132  -0.00032  -0.00378  -0.00113  -0.00033  -0.00007  -0.00942  -0.00481   0.01829   0.00785  -0.00450  -0.00196  -0.00413  -0.00133   0.00730   0.00238   0.00695   0.00155  -4.28704  -1.44793  -1.82274  -0.67171  -0.69941  -0.24336  -0.11568  -0.04147  -0.25132  -0.08300  -0.48690  -0.14793  -0.49667  -0.12723  -0.02288  -0.00859   0.01923   0.00677   0.00163   0.00059  -0.00846  -0.00282  -0.04815  -0.01470  -0.07879  -0.01998   0.03572   0.01249   0.03957   0.01343  -0.00362  -0.00129   0.03408   0.01181  -0.03212  -0.00986   0.03531   0.00909  -0.08918  -0.03399  -0.10687  -0.03795  -0.02646  -0.00966  -0.02562  -0.00842  -0.10067  -0.03074  -0.03706  -0.00941 -15.31376  -4.77456  -4.97736  -1.55004  -0.43517  -0.13636  -0.64009  -0.19731  -0.35253  -0.11108  -1.77317  -0.54954   0.04115   0.01283  -0.19550  -0.05993  -0.09422  -0.02954  -4.86097  -1.52466  -0.37424  -0.11818  -0.25527  -0.07907  -0.31976  -0.10159  -0.97895  -0.30060  -0.06394  -0.01974  -0.11655  -0.03547   0.08283   0.02571
-19.92491  -5.35857  -2.35940  -0.07481  -0.05466  -0.14134  -0.09384   0.07345   0.04246  -0.01182  -0.00674  -0.02216  -0.01001   0.02674   0.01293  -0.00683  -0.00276  -0.00560  -0.00413   0.00691   0.00427  -0.00094  -0.00059  -0.00212  -0.00102   0.00582   0.00286  -0.00571  -0.00191  -0.00061  -0.00050   0.00189   0.00121   0.00098   0.00061  -0.00102  -0.00037  -0.00296  -0.00128  -0.00027  -0.00008  -0.00730  -0.00517   0.01425   0.00856  -0.00357  -0.00214  -0.00332  -0.00150   0.00562   0.00266   0.00508   0.00180  -3.40962  -1.61863  -1.41066  -0.74233  -0.54292  -0.27054  -0.08674  -0.04582  -0.18668  -0.09235  -0.39917  -0.16792  -0.44627  -0.14957  -0.01771  -0.00948   0.01493   0.00752   0.00123   0.00066  -0.00632  -0.00313  -0.03938  -0.01667  -0.07034  -0.02350   0.02767   0.01387   0.03076   0.01497  -0.00273  -0.00143   0.02547   0.01309  -0.02638  -0.01118   0.03175   0.01068  -0.06901  -0.03745  -0.08297  -0.04210  -0.01992  -0.01066  -0.01915  -0.00938  -0.08216  -0.03485  -0.03292  -0.01106 -12.59127  -5.40491  -4.09321  -1.75496  -0.35687  -0.15423  -0.52700  -0.22369  -0.28842  -0.12552  -1.46282  -0.62277   0.03385   0.01452  -0.16147  -0.06801  -0.07731  -0.03341  -3.98859  -1.72434  -0.30626  -0.13351  -0.20969  -0.08957  -0.26107  -0.11466  -0.81115  -0.34120  -0.05282  -0.02239  -0.09669  -0.04031   0.06824   0.02913
-19.87484  -3.99103  -2.55920  -0.05344  -0.05734  -0.09876  -0.09878   0.05173   0.04505  -0.00876  -0.00718  -0.01695  -0.01086   0.01763   0.01381  -0.00332  -0.00293  -0.00391  -0.00432   0.00488   0.00452  -0.00070  -0.00063  -0.00164  -0.00110   0.00384   0.00306  -0.00265  -0.00204  -0.00042  -0.00052   0.00130   0.00128   0.00067   0.00065  -0.00070  -0.00041  -0.00206  -0.00138  -0.00019  -0.00009  -0.00507  -0.00543   0.00996   0.00906  -0.00258  -0.00227  -0.00246  -0.00162   0.00378   0.00285   0.00294   0.00195  -2.43021  -1.74029  -0.95994  -0.79039  -0.36991  -0.28905  -0.05474  -0.04856  -0.11404  -0.09806  -0.29834  -0.18285  -0.38337  -0.16876  -0.01206  -0.01008   0.01019   0.00803   0.00078   0.00069  -0.00391  -0.00333  -0.02932  -0.01814  -0.05985  -0.02650   0.01882   0.01482   0.02099   0.01603  -0.00173  -0.00152   0.01578   0.01388  -0.01978  -0.01217   0.02729   0.01205  -0.04703  -0.03980  -0.05663  -0.04494  -0.01272  -0.01130  -0.01190  -0.00998  -0.06097  -0.03790  -0.02783  -0.01245  -9.48943  -5.87997  -3.08571  -1.90944  -0.26781  -0.16763  -0.39778  -0.24360  -0.21566  -0.13631  -1.10847  -0.67826   0.02552   0.01580  -0.12250  -0.07414  -0.05808  -0.03632  -2.99618  -1.87434  -0.22905  -0.14498  -0.15771  -0.09746  -0.19457  -0.12440  -0.61905  -0.37220  -0.04010  -0.02439  -0.07388  -0.04401   0.05160   0.03171
-19.82478  -2.76499  -2.69762  -0.03587  -0.05913  -0.06310  -0.10194   0.03343   0.04672  -0.00623  -0.00749  -0.01259  -0.01149   0.00963   0.01430  -0.00010  -0.00293  -0.00250  -0.00445   0.00316   0.00468  -0.00051  -0.00065  -0.00123  -0.00116   0.00211   0.00316   0.00015  -0.00204  -0.00026  -0.00053   0.00080   0.00132   0.00041   0.00067  -0.00043  -0.00043  -0.00128  -0.00145  -0.00012  -0.00010  -0.00319  -0.00559   0.00632   0.00938  -0.00175  -0.00236  -0.00172  -0.00170   0.00215   0.00295   0.00098   0.00200  -1.56119  -1.81845  -0.56575  -0.81871  -0.21739  -0.29994  -0.02653  -0.04989  -0.04928  -0.10053  -0.20711  -0.19322  -0.32345  -0.18495  -0.00713  -0.01044   0.00602   0.00833   0.00039   0.00071  -0.00177  -0.00342  -0.02024  -0.01915  -0.04987  -0.02899   0.01107   0.01537   0.01237   0.01664  -0.00086  -0.00156   0.00717   0.01424  -0.01380  -0.01286   0.02303   0.01320  -0.02787  -0.04120  -0.03348  -0.04661  -0.00639  -0.01162  -0.00545  -0.01025  -0.04185  -0.04000  -0.02300  -0.01361  -6.69792  -6.21529  -2.17898  -2.01852  -0.18774  -0.17703  -0.28131  -0.25769  -0.15037  -0.14384  -0.78905  -0.71777   0.01803   0.01670  -0.08732  -0.07852  -0.04080  -0.03836  -2.10390  -1.97966  -0.15971  -0.15297  -0.11089  -0.10301  -0.13496  -0.13116  -0.44565  -0.39451  -0.02863  -0.02583  -0.05327  -0.04667   0.03663   0.03354
-19.77472  -1.83169  -2.78932  -0.02384  -0.06033  -0.03825  -0.10385   0.02059   0.04775  -0.00446  -0.00772  -0.00955  -0.01197   0.00378   0.01449   0.00234  -0.00282  -0.00151  -0.00453   0.00196   0.00477  -0.00037  -0.00067  -0.00095  -0.00121   0.00084   0.00320   0.00226  -0.00192  -0.00014  -0.00054   0.00044   0.00134   0.00023   0.00068  -0.00025  -0.00044  -0.00070  -0.00148  -0.00006  -0.00010  -0.00188  -0.00568   0.00374   0.00956  -0.00116  -0.00241  -0.00119  -0.00176   0.00096   0.00300  -0.00051   0.00198  -0.91173  -1.86409  -0.27680  -0.83257  -0.10493  -0.30519  -0.00599  -0.05019  -0.00196  -0.10062  -0.13722  -0.20009  -0.27253  -0.19860  -0.00353  -0.01062   0.00294   0.00848   0.00010   0.00072  -0.00021  -0.00343  -0.01329  -0.01982  -0.04144  -0.03107   0.00536   0.01564   0.00601   0.01695  -0.00023  -0.00157   0.00096   0.01428  -0.00925  -0.01332   0.01939   0.01417  -0.01387  -0.04189  -0.01647  -0.04744  -0.00180  -0.01171  -0.00076  -0.01029  -0.02726  -0.04136  -0.01895  -0.01455  -4.55950  -6.44355  -1.48435  -2.09283  -0.12652  -0.18337  -0.19202  -0.26730  -0.10057  -0.14888  -0.54361  -0.74498   0.01228   0.01732  -0.06026  -0.08153  -0.02758  -0.03974  -1.42137  -2.05082  -0.10677  -0.15832  -0.07504  -0.10677  -0.08957  -0.13564  -0.31207  -0.41013  -0.01982  -0.02682  -0.03737  -0.04854   0.02515   0.03480
-19.72466  -1.19714  -2.84925  -0.01681  -0.06117  -0.02356  -0.10503   0.01293   0.04840  -0.00340  -0.00789  -0.00768  -0.01235   0.00019   0.01450   0.00385  -0.00262  -0.00092  -0.00457   0.00124   0.00484  -0.00028  -0.00069  -0.00078  -0.00125   0.00007   0.00321   0.00353  -0.00175  -0.00007  -0.00054   0.00022   0.00135   0.00013   0.00069  -0.00015  -0.00045  -0.00035  -0.00150  -0.00003  -0.00010  -0.00109  -0.00574   0.00218   0.00967  -0.00079  -0.00245  -0.00085  -0.00181   0.00021   0.00301  -0.00142   0.00190  -0.48931  -1.88859  -0.09626  -0.83739  -0.03445  -0.30692   0.00623  -0.04987   0.02580  -0.09933  -0.08959  -0.20458  -0.22895  -0.21006  -0.00128  -0.01068   0.00102   0.00853  -0.00007   0.00072   0.00070  -0.00339  -0.00858  -0.02025  -0.03434  -0.03279   0.00178   0.01573   0.00204   0.01705   0.00014  -0.00156  -0.00252   0.01416  -0.00619  -0.01363   0.01623   0.01498  -0.00516  -0.04215  -0.00584  -0.04773   0.00094  -0.01166   0.00201  -0.01019  -0.01738  -0.04223  -0.01560  -0.01534  -3.08529  -6.59801  -1.00542  -2.14317  -0.08451  -0.18760  -0.13043  -0.27383  -0.06656  -0.15221  -0.37322  -0.76366   0.00832   0.01773  -0.04147  -0.08361  -0.01850  -0.04067  -0.95244  -2.09850  -0.07057  -0.16185  -0.05038  -0.10929  -0.05866  -0.13858  -0.21870  -0.42108  -0.01369  -0.02750  -0.02626  -0.04986   0.01720   0.03566
-19.67459  -0.78955  -2.88878  -0.01321  -0.06183  -0.01616  -0.10584   0.00902   0.04885  -0.00280  -0.00803  -0.00661  -0.01269  -0.00158   0.01442   0.00450  -0.00240  -0.00062  -0.00460   0.00087   0.00488  -0.00024  -0.00070  -0.00068  -0.00128  -0.00030   0.00319   0.00406  -0.00154  -0.00003  -0.00054   0.00011   0.00136   0.00008   0.00069  -0.00012  -0.00046  -0.00016  -0.00151  -0.00000  -0.00010  -0.00069  -0.00577   0.00136   0.00974  -0.00057  -0.00248  -0.00064  -0.00184  -0.00018   0.00300  -0.00183   0.00181  -0.24312  -1.90076  -0.00057  -0.83742   0.00286  -0.30677   0.01169  -0.04929   0.03734  -0.09746  -0.05901  -0.20753  -0.18893  -0.21952  -0.00009  -0.01068   0.00001   0.00853  -0.00014   0.00071   0.00108  -0.00334  -0.00559  -0.02053  -0.02797  -0.03419  -0.00015   0.01572  -0.00004   0.01705   0.00029  -0.00155  -0.00369   0.01397  -0.00429  -0.01385   0.01327   0.01565  -0.00055  -0.04218  -0.00022  -0.04774   0.00218  -0.01155   0.00319  -0.01003  -0.01113  -0.04279  -0.01265  -0.01597  -2.11233  -6.70376  -0.68920  -2.17767  -0.05704  -0.19045  -0.08975  -0.27832  -0.04449  -0.15444  -0.25928  -0.77664   0.00569   0.01802  -0.02888  -0.08505  -0.01254  -0.04129  -0.64513  -2.13080  -0.04706  -0.16421  -0.03420  -0.11101  -0.03876  -0.14052  -0.15532  -0.42885  -0.00957  -0.02798  -0.01871  -0.05080   0.01192   0.03626
-19.62453  -0.52716  -2.91517  -0.01166  -0.06241  -0.01317  -0.10650   0.00748   0.04923  -0.00252  -0.00815  -0.00619  -0.01299  -0.00213   0.01431   0.00462  -0.00217  -0.00049  -0.00463   0.00072   0.00492  -0.00021  -0.00071  -0.00064  -0.00131  -0.00040   0.00317   0.00411  -0.00134  -0.00002  -0.00054   0.00007   0.00136   0.00008   0.00069  -0.00013  -0.00046  -0.00009  -0.00151   0.00002  -0.00010  -0.00053  -0.00580   0.00099   0.00979  -0.00045  -0.00250  -0.00051  -0.00187  -0.00035   0.00299  -0.00192   0.00172  -0.10959  -1.90624   0.04078  -0.83538   0.01888  -0.30583   0.01281  -0.04865   0.03856  -0.09553  -0.03928  -0.20950  -0.15117  -0.22709   0.00043  -0.01066  -0.00042   0.00851  -0.00016   0.00070   0.00111  -0.00328  -0.00371  -0.02071  -0.02205  -0.03529  -0.00100   0.01567  -0.00088   0.01700   0.00029  -0.00153  -0.00333   0.01381  -0.00313  -0.01400   0.01041   0.01617   0.00143  -0.04210   0.00219  -0.04763   0.00247  -0.01143   0.00335  -0.00986  -0.00719  -0.04315  -0.00996  -0.01647  -1.46022  -6.77686  -0.47712  -2.20156  -0.03888  -0.19240  -0.06239  -0.28144  -0.03008  -0.15594  -0.18152  -0.78573   0.00392   0.01821  -0.02025  -0.08607  -0.00858  -0.04172  -0.44137  -2.15290  -0.03170  -0.16579  -0.02343  -0.11218  -0.02590  -0.14181  -0.11109  -0.43442  -0.00674  -0.02832  -0.01342  -0.05147   0.00833   0.03668
-19.57447  -0.35251  -2.93282  -0.01161  -0.06300  -0.01288  -0.10715   0.00756   0.04961  -0.00256  -0.00828  -0.00664  -0.01333  -0.00197   0.01421   0.00463  -0.00193  -0.00047  -0.00465   0.00072   0.00495  -0.00022  -0.00072  -0.00069  -0.00135  -0.00034   0.00316   0.00407  -0.00113  -0.00002  -0.00055   0.00007   0.00136   0.00010   0.00070  -0.00019  -0.00047  -0.00007  -0.00151   0.00003  -0.00010  -0.00049  -0.00582   0.00090   0.00984  -0.00040  -0.00252  -0.00048  -0.00189  -0.00038   0.00297  -0.00189   0.00162  -0.03785  -1.90814   0.05366  -0.83269   0.02399  -0.30463   0.01196  -0.04805   0.03561  -0.09375  -0.02587  -0.21079  -0.11787  -0.23299   0.00059  -0.01063  -0.00055   0.00848  -0.00014   0.00069   0.00099  -0.00323  -0.00246  -0.02084  -0.01685  -0.03614  -0.00129   0.01561  -0.00108   0.01695   0.00023  -0.00152  -0.00231   0.01369  -0.00240  -0.01413   0.00780   0.01656   0.00203  -0.04200   0.00294  -0.04749   0.00230  -0.01131   0.00308  -0.00971  -0.00458  -0.04338  -0.00762  -0.01685  -1.00808  -6.82732  -0.32995  -2.21807  -0.02646  -0.19372  -0.04328  -0.28361  -0.02033  -0.15696  -0.12677  -0.79208   0.00269   0.01835  -0.01412  -0.08678  -0.00585  -0.04202  -0.30167  -2.16800  -0.02131  -0.16686  -0.01598  -0.11298  -0.01731  -0.14268  -0.07925  -0.43838  -0.00473  -0.02856  -0.00957  -0.05195   0.00581   0.03697
-19.52441  -0.23515  -2.94459  -0.01326  -0.06366  -0.01482  -0.10789   0.00916   0.05007  -0.00304  -0.00844  -0.00844  -0.01375  -0.00145   0.01414   0.00499  -0.00168  -0.00054  -0.00468   0.00086   0.00499  -0.00025  -0.00073  -0.00086  -0.00139  -0.00021   0.00314   0.00433  -0.00092  -0.00002  -0.00055   0.00011   0.00137   0.00015   0.00071  -0.00030  -0.00049  -0.00009  -0.00152   0.00005  -0.00010  -0.00054  -0.00585   0.00103   0.00989  -0.00045  -0.00255  -0.00059  -0.00192  -0.00035   0.00295  -0.00198   0.00152   0.00469  -1.90790   0.05586  -0.82989   0.02545  -0.30335   0.01097  -0.04750   0.03350  -0.09207  -0.01620  -0.21160  -0.09292  -0.23764   0.00060  -0.01060  -0.00057   0.00845  -0.00012   0.00069   0.00088  -0.00319  -0.00158  -0.02092  -0.01286  -0.03678  -0.00134   0.01554  -0.00106   0.01689   0.00016  -0.00152  -0.00135   0.01362  -0.00192  -0.01422   0.00575   0.01685   0.00209  -0.04190   0.00308  -0.04733   0.00207  -0.01121   0.00282  -0.00957  -0.00275  -0.04351  -0.00584  -0.01714  -0.69688  -6.86221  -0.22858  -2.22952  -0.01796  -0.19462  -0.02994  -0.28511  -0.01370  -0.15765  -0.08891  -0.79653   0.00185   0.01844  -0.00982  -0.08727  -0.00399  -0.04222  -0.20619  -2.17832  -0.01427  -0.16757  -0.01082  -0.11352  -0.01153  -0.14326  -0.05692  -0.44123  -0.00332  -0.02872  -0.00682  -0.05229   0.00405   0.03717
-19.47434  -0.16041  -2.95262  -0.01717  -0.06452  -0.01929  -0.10885   0.01247   0.05069  -0.00409  -0.00864  -0.01202  -0.01435  -0.00079   0.01410   0.00603  -0.00138  -0.00070  -0.00471   0.00116   0.00505  -0.00034  -0.00075  -0.00120  -0.00145  -0.00004   0.00314   0.00519  -0.00066  -0.00004  -0.00055   0.00017   0.00138   0.00023   0.00072  -0.00045  -0.00051  -0.00012  -0.00153   0.00008  -0.00009  -0.00068  -0.00588   0.00138   0.00996  -0.00062  -0.00258  -0.00089  -0.00196  -0.00028   0.00294  -0.00234   0.00141   0.03613  -1.90610   0.05787  -0.82700   0.02754  -0.30197   0.01093  -0.04695   0.03531  -0.09031  -0.00904  -0.21206  -0.07934  -0.24161   0.00061  -0.01057  -0.00060   0.00842  -0.00012   0.00068   0.00088  -0.00315  -0.00096  -0.02096  -0.01048  -0.03730  -0.00138   0.01547  -0.00107   0.01684   0.00012  -0.00151  -0.00094   0.01358  -0.00158  -0.01430   0.00449   0.01707   0.00207  -0.04179   0.00321  -0.04717   0.00198  -0.01111   0.00285  -0.00942  -0.00143  -0.04359  -0.00477  -0.01738  -0.50020  -6.88725  -0.16451  -2.23775  -0.01253  -0.19525  -0.02130  -0.28618  -0.00948  -0.15812  -0.06534  -0.79980   0.00131   0.01851  -0.00706  -0.08762  -0.00281  -0.04236  -0.14576  -2.18562  -0.00977  -0.16806  -0.00748  -0.11389  -0.00785  -0.14365  -0.04307  -0.44339  -0.00242  -0.02885  -0.00506  -0.05254   0.00294   0.03732
-19.42428  -0.11900  -2.95858  -0.02387  -0.06571  -0.02684  -0.11020   0.01746   0.05156  -0.00564  -0.00892  -0.01715  -0.01521  -0.00028   0.01408   0.00784  -0.00099  -0.00097  -0.00476   0.00161   0.00513  -0.00046  -0.00077  -0.00169  -0.00154   0.00011   0.00315   0.00670  -0.00032  -0.00006  -0.00055   0.00026   0.00139   0.00032   0.00073  -0.00063  -0.00054  -0.00012  -0.00153   0.00012  -0.00008  -0.00091  -0.00593   0.00195   0.01005  -0.00089  -0.00262  -0.00135  -0.00203  -0.00022   0.00293  -0.00304   0.00125   0.06488  -1.90285   0.06466  -0.82376   0.03196  -0.30037   0.01215  -0.04634   0.04171  -0.08822  -0.00390  -0.21225  -0.07738  -0.24548   0.00066  -0.01054  -0.00067   0.00839  -0.00013   0.00068   0.00100  -0.00310  -0.00052  -0.02099  -0.00974  -0.03779  -0.00151   0.01539  -0.00123   0.01678   0.00012  -0.00150  -0.00123   0.01351  -0.00134  -0.01437   0.00408   0.01727   0.00220  -0.04168   0.00357  -0.04699   0.00211  -0.01100   0.00322  -0.00926  -0.00049  -0.04361  -0.00441  -0.01760  -0.39801  -6.90718  -0.13127  -2.24432  -0.00957  -0.19573  -0.01662  -0.28701  -0.00715  -0.15848  -0.05382  -0.80250   0.00103   0.01856  -0.00562  -0.08790  -0.00219  -0.04247  -0.11372  -2.19131  -0.00729  -0.16843  -0.00564  -0.11418  -0.00580  -0.14394  -0.03657  -0.44522  -0.00197  -0.02894  -0.00417  -0.05275   0.00235   0.03744
-19.37422  -0.10208  -2.96369  -0.03353  -0.06739  -0.03787  -0.11209   0.02345   0.05274  -0.00728  -0.00929  -0.02251  -0.01634  -0.00043   0.01406   0.01017  -0.00048  -0.00135  -0.00483   0.00215   0.00524  -0.00060  -0.00080  -0.00221  -0.00165   0.00016   0.00316   0.00863   0.00011  -0.00010  -0.00056   0.00036   0.00141   0.00040   0.00075  -0.00077  -0.00058  -0.00003  -0.00153   0.00017  -0.00008  -0.00126  -0.00599   0.00266   0.01019  -0.00120  -0.00268  -0.00186  -0.00212  -0.00024   0.00291  -0.00397   0.00105   0.09249  -1.89822   0.07735  -0.81989   0.03827  -0.29846   0.01414  -0.04564   0.05061  -0.08568  -0.00090  -0.21230  -0.08392  -0.24969   0.00077  -0.01050  -0.00079   0.00835  -0.00014   0.00067   0.00120  -0.00304  -0.00027  -0.02100  -0.01020  -0.03830  -0.00180   0.01530  -0.00152   0.01670   0.00015  -0.00150  -0.00191   0.01342  -0.00127  -0.01443   0.00436   0.01749   0.00251  -0.04156   0.00413  -0.04679   0.00239  -0.01088   0.00380  -0.00907   0.00011  -0.04361  -0.00457  -0.01783  -0.36521  -6.92546  -0.12068  -2.25037  -0.00843  -0.19615  -0.01505  -0.28776  -0.00618  -0.15879  -0.05108  -0.80505   0.00094   0.01861  -0.00523  -0.08816  -0.00196  -0.04257  -0.10225  -2.19643  -0.00626  -0.16874  -0.00494  -0.11442  -0.00491  -0.14419  -0.03553  -0.44700  -0.00183  -0.02904  -0.00397  -0.05295   0.00216   0.03754
-19.32416  -0.10094  -2.96874  -0.04613  -0.06970  -0.05279  -0.11474   0.02911   0.05420  -0.00826  -0.00970  -0.02563  -0.01762  -0.00207   0.01396   0.01244   0.00014  -0.00183  -0.00492   0.00265   0.00537  -0.00069  -0.00084  -0.00256  -0.00177  -0.00003   0.00315   0.01046   0.00063  -0.00016  -0.00056   0.00046   0.00143   0.00042   0.00077  -0.00080  -0.00062   0.00021  -0.00152   0.00022  -0.00006  -0.00174  -0.00608   0.00334   0.01035  -0.00138  -0.00275  -0.00215  -0.00223  -0.00046   0.00289  -0.00490   0.00081   0.11570  -1.89243   0.09480  -0.81514   0.04452  -0.29623   0.01576  -0.04485   0.05770  -0.08280  -0.00078  -0.21234  -0.09327  -0.25436   0.00093  -0.01046  -0.00091   0.00831  -0.00016   0.00066   0.00135  -0.00297  -0.00026  -0.02102  -0.01115  -0.03886  -0.00232   0.01519  -0.00187   0.01661   0.00017  -0.00149  -0.00231   0.01330  -0.00149  -0.01451   0.00500   0.01774   0.00294  -0.04141   0.00470  -0.04655   0.00264  -0.01075   0.00431  -0.00886   0.00033  -0.04359  -0.00493  -0.01808  -0.37239  -6.94410  -0.12315  -2.25653  -0.00836  -0.19657  -0.01569  -0.28855  -0.00599  -0.15909  -0.05311  -0.80771   0.00095   0.01865  -0.00553  -0.08844  -0.00194  -0.04266  -0.10239  -2.20156  -0.00609  -0.16905  -0.00502  -0.11468  -0.00467  -0.14442  -0.03743  -0.44887  -0.00188  -0.02913  -0.00426  -0.05316   0.00218   0.03765
-19.27409  -0.10834  -2.97417  -0.06176  -0.07279  -0.07225  -0.11835   0.03293   0.05584  -0.00767  -0.01008  -0.02362  -0.01880  -0.00620   0.01365   0.01399   0.00084  -0.00240  -0.00504   0.00297   0.00552  -0.00068  -0.00087  -0.00251  -0.00190  -0.00063   0.00312   0.01164   0.00122  -0.00024  -0.00058   0.00054   0.00146   0.00032   0.00079  -0.00058  -0.00065   0.00073  -0.00149   0.00025  -0.00005  -0.00240  -0.00620   0.00382   0.01055  -0.00126  -0.00282  -0.00194  -0.00233  -0.00101   0.00284  -0.00556   0.00053   0.12931  -1.88595   0.11532  -0.80937   0.04829  -0.29381   0.01569  -0.04406   0.05793  -0.07990  -0.00466  -0.21257  -0.09932  -0.25933   0.00114  -0.01040  -0.00098   0.00826  -0.00015   0.00065   0.00134  -0.00290  -0.00059  -0.02105  -0.01181  -0.03945  -0.00315   0.01503  -0.00216   0.01650   0.00013  -0.00148  -0.00155   0.01323  -0.00221  -0.01462   0.00562   0.01802   0.00339  -0.04124   0.00502  -0.04630   0.00267  -0.01062   0.00442  -0.00864   0.00010  -0.04358  -0.00514  -0.01833  -0.39259  -6.96376  -0.12983  -2.26303  -0.00873  -0.19701  -0.01783  -0.28944  -0.00604  -0.15939  -0.05611  -0.81052   0.00100   0.01870  -0.00625  -0.08875  -0.00197  -0.04276  -0.10597  -2.20686  -0.00623  -0.16936  -0.00555  -0.11495  -0.00463  -0.14465  -0.03982  -0.45087  -0.00199  -0.02923  -0.00486  -0.05341   0.00223   0.03777
-19.22403  -0.11967  -2.98016  -0.08069  -0.07683  -0.09701  -0.12321   0.03393   0.05754  -0.00487  -0.01033  -0.01440  -0.01952  -0.01360   0.01297   0.01439   0.00156  -0.00307  -0.00519   0.00301   0.00567  -0.00052  -0.00090  -0.00190  -0.00199  -0.00174   0.00304   0.01179   0.00181  -0.00036  -0.00059   0.00057   0.00149   0.00005   0.00079  -0.00006  -0.00065   0.00158  -0.00141   0.00027  -0.00004  -0.00325  -0.00636   0.00398   0.01075  -0.00070  -0.00285  -0.00101  -0.00238  -0.00201   0.00274  -0.00577   0.00024   0.12975  -1.87946   0.13786  -0.80247   0.04794  -0.29141   0.01300  -0.04341   0.04781  -0.07750  -0.01336  -0.21324  -0.09795  -0.26423   0.00138  -0.01033  -0.00098   0.00821  -0.00012   0.00065   0.00106  -0.00285  -0.00132  -0.02111  -0.01165  -0.04004  -0.00435   0.01481  -0.00231   0.01639  -0.00003  -0.00148   0.00106   0.01328  -0.00359  -0.01480   0.00596   0.01832   0.00380  -0.04105   0.00490  -0.04605   0.00236  -0.01050   0.00391  -0.00844  -0.00064  -0.04362  -0.00498  -0.01858  -0.40807  -6.98419  -0.13493  -2.26979  -0.00912  -0.19746  -0.02101  -0.29049  -0.00599  -0.15969  -0.05757  -0.81340   0.00103   0.01875  -0.00720  -0.08911  -0.00195  -0.04286  -0.10757  -2.21225  -0.00634  -0.16968  -0.00632  -0.11527  -0.00451  -0.14488  -0.04109  -0.45292  -0.00206  -0.02933  -0.00563  -0.05369   0.00221   0.03788
-19.17397  -0.13255  -2.98679  -0.10265  -0.08197  -0.12678  -0.12956   0.03212   0.05915   0.00011  -0.01032   0.00191  -0.01943  -0.02417   0.01176   0.01364   0.00225  -0.00382  -0.00539   0.00279   0.00581  -0.00022  -0.00091  -0.00073  -0.00203  -0.00334   0.00287   0.01091   0.00235  -0.00051  -0.00062   0.00057   0.00151  -0.00038   0.00077   0.00077  -0.00061   0.00277  -0.00127   0.00027  -0.00003  -0.00430  -0.00658   0.00381   0.01094   0.00029  -0.00284   0.00063  -0.00235  -0.00346   0.00257  -0.00553  -0.00003   0.11744  -1.87358   0.16172  -0.79437   0.04341  -0.28924   0.00769  -0.04303   0.02740  -0.07613  -0.02655  -0.21457  -0.08856  -0.26866   0.00165  -0.01025  -0.00089   0.00816  -0.00006   0.00064   0.00050  -0.00282  -0.00243  -0.02123  -0.01059  -0.04057  -0.00590   0.01452  -0.00229   0.01627  -0.00030  -0.00150   0.00562   0.01356  -0.00563  -0.01508   0.00592   0.01862   0.00414  -0.04084   0.00435  -0.04584   0.00170  -0.01042   0.00279  -0.00830  -0.00184  -0.04371  -0.00441  -0.01880  -0.41243  -7.00484  -0.13636  -2.27661  -0.00937  -0.19793  -0.02493  -0.29174  -0.00571  -0.15997  -0.05672  -0.81624   0.00102   0.01881  -0.00827  -0.08953  -0.00182  -0.04295  -0.10528  -2.21752  -0.00629  -0.16999  -0.00722  -0.11563  -0.00420  -0.14509  -0.04076  -0.45496  -0.00208  -0.02944  -0.00653  -0.05401   0.00208   0.03798
-19.12390  -0.14506  -2.99406  -0.12549  -0.08826  -0.15842  -0.13749   0.02838   0.06057   0.00637  -0.01000   0.02240  -0.01831  -0.03641   0.00994   0.01209   0.00285  -0.00459  -0.00561   0.00239   0.00593   0.00016  -0.00090   0.00075  -0.00199  -0.00519   0.00261   0.00935   0.00282  -0.00067  -0.00065   0.00054   0.00154  -0.00091   0.00073   0.00178  -0.00052   0.00412  -0.00106   0.00026  -0.00001  -0.00543  -0.00685   0.00341   0.01111   0.00154  -0.00276   0.00269  -0.00221  -0.00514   0.00231  -0.00496  -0.00028   0.09678  -1.86873   0.18486  -0.78512   0.03611  -0.28743   0.00080  -0.04299   0.00077  -0.07609  -0.04212  -0.21668  -0.07375  -0.27236   0.00193  -0.01015  -0.00075   0.00813   0.00002   0.00064  -0.00021  -0.00283  -0.00375  -0.02142  -0.00890  -0.04101  -0.00761   0.01414  -0.00215   0.01616  -0.00065  -0.00153   0.01142   0.01413  -0.00804  -0.01548   0.00557   0.01890   0.00440  -0.04062   0.00352  -0.04566   0.00083  -0.01037   0.00130  -0.00824  -0.00327  -0.04387  -0.00357  -0.01898  -0.40647  -7.02518  -0.13438  -2.28334  -0.00944  -0.19841  -0.02904  -0.29319  -0.00524  -0.16024  -0.05400  -0.81895   0.00100   0.01886  -0.00933  -0.09000  -0.00163  -0.04303  -0.09972  -2.22251  -0.00609  -0.17029  -0.00812  -0.11604  -0.00373  -0.14527  -0.03914  -0.45692  -0.00204  -0.02954  -0.00742  -0.05439   0.00187   0.03807