ESCALE ; pCOOP file generated by LOBSTER. Energy is shifted such that the Fermi level lies at 0 eV.
        68          1        801  -2.34549e+01   1.65951e+01  -3.42990e+00 
Average
No.1:O205->W271(1.7214950734575565)
No.1:O205[2s]->W271[6s](1.7214950734575565)
No.1:O205[2s]->W271[5d_xy](1.7214950734575565)
No.1:O205[2s]->W271[5d_yz](1.7214950734575565)
No.1:O205[2s]->W271[5d_z^2](1.7214950734575565)
No.1:O205[2s]->W271[5d_xz](1.7214950734575565)
No.1:O205[2s]->W271[5d_x^2-y^2](1.7214950734575565)
No.1:O205[2p_y]->W271[6s](1.7214950734575565)
No.1:O205[2p_y]->W271[5d_xy](1.7214950734575565)
No.1:O205[2p_y]->W271[5d_yz](1.7214950734575565)
No.1:O205[2p_y]->W271[5d_z^2](1.7214950734575565)
No.1:O205[2p_y]->W271[5d_xz](1.7214950734575565)
No.1:O205[2p_y]->W271[5d_x^2-y^2](1.7214950734575565)
No.1:O205[2p_z]->W271[6s](1.7214950734575565)
No.1:O205[2p_z]->W271[5d_xy](1.7214950734575565)
No.1:O205[2p_z]->W271[5d_yz](1.7214950734575565)
No.1:O205[2p_z]->W271[5d_z^2](1.7214950734575565)
No.1:O205[2p_z]->W271[5d_xz](1.7214950734575565)
No.1:O205[2p_z]->W271[5d_x^2-y^2](1.7214950734575565)
No.1:O205[2p_x]->W271[6s](1.7214950734575565)
No.1:O205[2p_x]->W271[5d_xy](1.7214950734575565)
No.1:O205[2p_x]->W271[5d_yz](1.7214950734575565)
No.1:O205[2p_x]->W271[5d_z^2](1.7214950734575565)
No.1:O205[2p_x]->W271[5d_xz](1.7214950734575565)
No.1:O205[2p_x]->W271[5d_x^2-y^2](1.7214950734575565)
No.2:O204->W271(1.9558999168449571)
No.2:O204[2s]->W271[6s](1.9558999168449571)
No.2:O204[2s]->W271[5d_xy](1.9558999168449571)
No.2:O204[2s]->W271[5d_yz](1.9558999168449571)
No.2:O204[2s]->W271[5d_z^2](1.9558999168449571)
No.2:O204[2s]->W271[5d_xz](1.9558999168449571)
No.2:O204[2s]->W271[5d_x^2-y^2](1.9558999168449571)
No.2:O204[2p_y]->W271[6s](1.9558999168449571)
No.2:O204[2p_y]->W271[5d_xy](1.9558999168449571)
No.2:O204[2p_y]->W271[5d_yz](1.9558999168449571)
No.2:O204[2p_y]->W271[5d_z^2](1.9558999168449571)
No.2:O204[2p_y]->W271[5d_xz](1.9558999168449571)
No.2:O204[2p_y]->W271[5d_x^2-y^2](1.9558999168449571)
No.2:O204[2p_z]->W271[6s](1.9558999168449571)
No.2:O204[2p_z]->W271[5d_xy](1.9558999168449571)
No.2:O204[2p_z]->W271[5d_yz](1.9558999168449571)
No.2:O204[2p_z]->W271[5d_z^2](1.9558999168449571)
No.2:O204[2p_z]->W271[5d_xz](1.9558999168449571)
No.2:O204[2p_z]->W271[5d_x^2-y^2](1.9558999168449571)
No.2:O204[2p_x]->W271[6s](1.9558999168449571)
No.2:O204[2p_x]->W271[5d_xy](1.9558999168449571)
No.2:O204[2p_x]->W271[5d_yz](1.9558999168449571)
No.2:O204[2p_x]->W271[5d_z^2](1.9558999168449571)
No.2:O204[2p_x]->W271[5d_xz](1.9558999168449571)
No.2:O204[2p_x]->W271[5d_x^2-y^2](1.9558999168449571)
No.3:C2->O204(1.4199915690110303)
No.3:C2[2s]->O204[2s](1.4199915690110303)
No.3:C2[2s]->O204[2p_y](1.4199915690110303)
No.3:C2[2s]->O204[2p_z](1.4199915690110303)
No.3:C2[2s]->O204[2p_x](1.4199915690110303)
No.3:C2[2p_y]->O204[2s](1.4199915690110303)
No.3:C2[2p_y]->O204[2p_y](1.4199915690110303)
No.3:C2[2p_y]->O204[2p_z](1.4199915690110303)
No.3:C2[2p_y]->O204[2p_x](1.4199915690110303)
No.3:C2[2p_z]->O204[2s](1.4199915690110303)
No.3:C2[2p_z]->O204[2p_y](1.4199915690110303)
No.3:C2[2p_z]->O204[2p_z](1.4199915690110303)
No.3:C2[2p_z]->O204[2p_x](1.4199915690110303)
No.3:C2[2p_x]->O204[2s](1.4199915690110303)
No.3:C2[2p_x]->O204[2p_y](1.4199915690110303)
No.3:C2[2p_x]->O204[2p_z](1.4199915690110303)
No.3:C2[2p_x]->O204[2p_x](1.4199915690110303)
-20.02503   0.00000   0.04932   0.00000  -0.00063   0.00000   0.00034   0.00000  -0.00102   0.00000   0.00011   0.00000   0.00021   0.00000  -0.00025   0.00000   0.00005   0.00000   0.00001   0.00000  -0.00005   0.00000   0.00001   0.00000   0.00001   0.00000  -0.00004   0.00000   0.00003   0.00000   0.00000   0.00000  -0.00003   0.00000  -0.00002   0.00000   0.00002   0.00000   0.00004   0.00000   0.00000   0.00000   0.00001   0.00000  -0.00009   0.00000   0.00002   0.00000   0.00001   0.00000  -0.00002   0.00000  -0.00001   0.00000   0.02057   0.00000   0.00366   0.00000   0.00545   0.00000   0.00083   0.00000   0.00142   0.00000   0.00417   0.00000   0.00290   0.00000   0.00009   0.00000  -0.00032   0.00000  -0.00005   0.00000   0.00003   0.00000   0.00034   0.00000   0.00043   0.00000  -0.00006   0.00000  -0.00031   0.00000   0.00008   0.00000  -0.00021   0.00000   0.00039   0.00000  -0.00017   0.00000   0.00022   0.00000   0.00076   0.00000   0.00017   0.00000   0.00008   0.00000   0.00057   0.00000   0.00010   0.00000   0.12801   0.00000   0.05993   0.00000   0.00462   0.00000   0.00619   0.00000   0.00380   0.00000   0.01087   0.00000  -0.00075   0.00000   0.00119   0.00000   0.00073   0.00000   0.03040   0.00000   0.00249   0.00000   0.00078   0.00000   0.00205   0.00000   0.00554   0.00000   0.00045   0.00000   0.00061   0.00000  -0.00091
-19.97497   0.18801   0.05873  -0.00138  -0.00070   0.00105   0.00039  -0.00267  -0.00115   0.00034   0.00013   0.00066   0.00024  -0.00092  -0.00029   0.00026   0.00006   0.00003   0.00001  -0.00012  -0.00005   0.00002   0.00001   0.00004   0.00001  -0.00015  -0.00005   0.00020   0.00004   0.00001   0.00000  -0.00009  -0.00003  -0.00006  -0.00002   0.00005   0.00002   0.00017   0.00005   0.00001   0.00000   0.00003   0.00001  -0.00019  -0.00010   0.00005   0.00002   0.00003   0.00001  -0.00006  -0.00002  -0.00008  -0.00001   0.07841   0.02450   0.01339   0.00433   0.01806   0.00636   0.00288   0.00097   0.00480   0.00166   0.01676   0.00501   0.01398   0.00360   0.00031   0.00010  -0.00105  -0.00037  -0.00017  -0.00006   0.00011   0.00004   0.00137   0.00041   0.00208   0.00053  -0.00022  -0.00007  -0.00106  -0.00037   0.00026   0.00009  -0.00070  -0.00025   0.00154   0.00047  -0.00082  -0.00021   0.00078   0.00025   0.00249   0.00089   0.00060   0.00020   0.00028   0.00010   0.00229   0.00069   0.00046   0.00012   0.48699   0.15239   0.22776   0.07134   0.01745   0.00549   0.02380   0.00738   0.01429   0.00451   0.04159   0.01296  -0.00284  -0.00089   0.00463   0.00143   0.00278   0.00087   0.11493   0.03615   0.00937   0.00296   0.00298   0.00092   0.00767   0.00244   0.02192   0.00664   0.00179   0.00054   0.00244   0.00074  -0.00357  -0.00109
-19.92491   0.15437   0.06646  -0.00105  -0.00075   0.00081   0.00043  -0.00210  -0.00126   0.00027   0.00015   0.00055   0.00027  -0.00070  -0.00033   0.00018   0.00007   0.00003   0.00001  -0.00009  -0.00006   0.00001   0.00001   0.00003   0.00002  -0.00011  -0.00005   0.00014   0.00005   0.00001   0.00000  -0.00007  -0.00004  -0.00005  -0.00002   0.00004   0.00002   0.00014   0.00006   0.00001   0.00000   0.00002   0.00001  -0.00015  -0.00010   0.00004   0.00002   0.00003   0.00002  -0.00004  -0.00002  -0.00003  -0.00002   0.06399   0.02770   0.01091   0.00488   0.01391   0.00705   0.00222   0.00108   0.00352   0.00184   0.01379   0.00570   0.01255   0.00423   0.00025   0.00011  -0.00081  -0.00041  -0.00013  -0.00006   0.00008   0.00004   0.00113   0.00047   0.00186   0.00063  -0.00018  -0.00008  -0.00082  -0.00041   0.00020   0.00010  -0.00051  -0.00027   0.00127   0.00053  -0.00074  -0.00025   0.00063   0.00029   0.00192   0.00098   0.00046   0.00023   0.00021   0.00011   0.00188   0.00078   0.00041   0.00014   0.40016   0.17242   0.18698   0.08070   0.01428   0.00621   0.01956   0.00836   0.01168   0.00510   0.03430   0.01467  -0.00233  -0.00100   0.00382   0.00162   0.00228   0.00099   0.09439   0.04088   0.00767   0.00335   0.00245   0.00105   0.00628   0.00275   0.01824   0.00755   0.00148   0.00062   0.00203   0.00084  -0.00296  -0.00124
-19.87484   0.11603   0.07227  -0.00071  -0.00078   0.00054   0.00046  -0.00149  -0.00133   0.00020   0.00016   0.00042   0.00029  -0.00046  -0.00035   0.00008   0.00007   0.00002   0.00002  -0.00007  -0.00006   0.00001   0.00001   0.00002   0.00002  -0.00008  -0.00006   0.00007   0.00005   0.00000   0.00000  -0.00005  -0.00004  -0.00003  -0.00002   0.00003   0.00002   0.00010   0.00006   0.00001   0.00000   0.00001   0.00001  -0.00011  -0.00011   0.00003   0.00003   0.00003   0.00002  -0.00002  -0.00002   0.00002  -0.00001   0.04749   0.03008   0.00803   0.00528   0.00934   0.00752   0.00148   0.00116   0.00208   0.00194   0.01036   0.00622   0.01077   0.00477   0.00018   0.00012  -0.00055  -0.00044  -0.00009  -0.00007   0.00005   0.00005   0.00084   0.00051   0.00158   0.00071  -0.00013  -0.00009  -0.00055  -0.00044   0.00014   0.00011  -0.00030  -0.00029   0.00095   0.00058  -0.00064  -0.00028   0.00046   0.00031   0.00129   0.00105   0.00031   0.00024   0.00012   0.00011   0.00140   0.00085   0.00035   0.00016   0.30132   0.18751   0.14060   0.08774   0.01069   0.00674   0.01473   0.00910   0.00873   0.00553   0.02597   0.01597  -0.00176  -0.00109   0.00290   0.00176   0.00171   0.00107   0.07101   0.04443   0.00574   0.00363   0.00185   0.00114   0.00469   0.00298   0.01401   0.00825   0.00113   0.00067   0.00156   0.00092  -0.00225  -0.00135
-19.82478   0.08152   0.07635  -0.00042  -0.00081   0.00032   0.00048  -0.00098  -0.00138   0.00013   0.00016   0.00032   0.00031  -0.00024  -0.00036  -0.00000   0.00007   0.00001   0.00002  -0.00004  -0.00006   0.00001   0.00001   0.00002   0.00002  -0.00004  -0.00006   0.00001   0.00006   0.00000   0.00000  -0.00003  -0.00004  -0.00002  -0.00003   0.00002   0.00002   0.00007   0.00007   0.00001   0.00000   0.00001   0.00001  -0.00008  -0.00011   0.00002   0.00003   0.00002   0.00002  -0.00001  -0.00002   0.00007  -0.00001   0.03257   0.03171   0.00538   0.00555   0.00533   0.00779   0.00082   0.00120   0.00080   0.00198   0.00726   0.00658   0.00909   0.00522   0.00012   0.00013  -0.00031  -0.00046  -0.00005  -0.00007   0.00002   0.00005   0.00059   0.00054   0.00131   0.00077  -0.00009  -0.00009  -0.00031  -0.00045   0.00008   0.00011  -0.00012  -0.00029   0.00067   0.00061  -0.00054  -0.00031   0.00031   0.00032   0.00074   0.00108   0.00017   0.00025   0.00005   0.00012   0.00098   0.00090   0.00029   0.00017   0.21242   0.19814   0.09892   0.09269   0.00746   0.00712   0.01039   0.00962   0.00608   0.00584   0.01845   0.01690  -0.00124  -0.00115   0.00206   0.00187   0.00121   0.00113   0.04998   0.04693   0.00401   0.00383   0.00130   0.00120   0.00327   0.00315   0.01019   0.00876   0.00081   0.00071   0.00114   0.00097  -0.00162  -0.00143
-19.77472   0.05509   0.07911  -0.00022  -0.00082   0.00016   0.00048  -0.00062  -0.00141   0.00009   0.00017   0.00025   0.00032  -0.00008  -0.00036  -0.00006   0.00007   0.00000   0.00002  -0.00003  -0.00006   0.00000   0.00001   0.00001   0.00002  -0.00002  -0.00006  -0.00004   0.00005   0.00000   0.00000  -0.00002  -0.00004  -0.00001  -0.00003   0.00001   0.00002   0.00004   0.00007   0.00000   0.00000   0.00000   0.00001  -0.00006  -0.00012   0.00002   0.00003   0.00002   0.00002   0.00000  -0.00002   0.00010  -0.00001   0.02114   0.03277   0.00330   0.00571   0.00239   0.00791   0.00033   0.00121  -0.00013   0.00198   0.00488   0.00683   0.00766   0.00561   0.00008   0.00013  -0.00014  -0.00046  -0.00002  -0.00007  -0.00000   0.00005   0.00039   0.00056   0.00109   0.00083  -0.00006  -0.00010  -0.00014  -0.00046   0.00003   0.00011   0.00001  -0.00029   0.00046   0.00063  -0.00046  -0.00033   0.00019   0.00033   0.00034   0.00110   0.00007   0.00025  -0.00000   0.00012   0.00065   0.00093   0.00024   0.00018   0.14436   0.20537   0.06704   0.09604   0.00499   0.00737   0.00707   0.00997   0.00407   0.00604   0.01267   0.01753  -0.00084  -0.00120   0.00142   0.00194   0.00082   0.00117   0.03388   0.04863   0.00268   0.00397   0.00088   0.00125   0.00219   0.00326   0.00724   0.00912   0.00057   0.00074   0.00081   0.00101  -0.00113  -0.00149
-19.72466   0.03691   0.08095  -0.00011  -0.00082   0.00006   0.00049  -0.00040  -0.00143   0.00006   0.00017   0.00020   0.00033   0.00001  -0.00036  -0.00010   0.00007   0.00000   0.00002  -0.00002  -0.00007   0.00000   0.00001   0.00001   0.00002  -0.00000  -0.00006  -0.00007   0.00005   0.00000   0.00000  -0.00001  -0.00004  -0.00001  -0.00003   0.00000   0.00002   0.00003   0.00007   0.00000   0.00000  -0.00000   0.00001  -0.00004  -0.00012   0.00002   0.00003   0.00002   0.00002   0.00001  -0.00002   0.00011  -0.00000   0.01336   0.03344   0.00184   0.00581   0.00058   0.00794   0.00002   0.00121  -0.00067   0.00194   0.00325   0.00699   0.00644   0.00593   0.00004   0.00014  -0.00004  -0.00047  -0.00000  -0.00007  -0.00001   0.00005   0.00026   0.00057   0.00090   0.00087  -0.00003  -0.00010  -0.00003  -0.00046   0.00000   0.00011   0.00009  -0.00029   0.00031   0.00065  -0.00038  -0.00035   0.00011   0.00034   0.00009   0.00111   0.00001   0.00025  -0.00003   0.00011   0.00042   0.00096   0.00020   0.00019   0.09748   0.21025   0.04515   0.09830   0.00331   0.00753   0.00478   0.01021   0.00269   0.00618   0.00864   0.01796  -0.00056  -0.00122   0.00097   0.00199   0.00055   0.00120   0.02279   0.04977   0.00178   0.00406   0.00060   0.00128   0.00145   0.00333   0.00516   0.00938   0.00040   0.00076   0.00058   0.00104  -0.00079  -0.00153
-19.67459   0.02499   0.08221  -0.00005  -0.00082   0.00001   0.00049  -0.00029  -0.00145   0.00005   0.00017   0.00017   0.00034   0.00006  -0.00036  -0.00012   0.00006  -0.00000   0.00002  -0.00001  -0.00007   0.00000   0.00001   0.00001   0.00002   0.00001  -0.00006  -0.00008   0.00005   0.00000   0.00000  -0.00000  -0.00004  -0.00000  -0.00003   0.00000   0.00002   0.00002   0.00007   0.00000   0.00000  -0.00000   0.00001  -0.00004  -0.00012   0.00001   0.00003   0.00002   0.00002   0.00001  -0.00002   0.00012   0.00001   0.00840   0.03386   0.00091   0.00585  -0.00035   0.00792  -0.00014   0.00121  -0.00088   0.00190   0.00219   0.00710   0.00533   0.00620   0.00002   0.00014   0.00001  -0.00046   0.00001  -0.00007  -0.00002   0.00004   0.00017   0.00058   0.00073   0.00091  -0.00002  -0.00010   0.00002  -0.00046  -0.00001   0.00011   0.00012  -0.00028   0.00022   0.00066  -0.00032  -0.00037   0.00005   0.00034  -0.00003   0.00111  -0.00002   0.00025  -0.00004   0.00011   0.00028   0.00097   0.00016   0.00020   0.06660   0.21358   0.03077   0.09985   0.00221   0.00764   0.00328   0.01038   0.00180   0.00627   0.00595   0.01826  -0.00038  -0.00124   0.00067   0.00202   0.00037   0.00122   0.01549   0.05055   0.00118   0.00412   0.00041   0.00130   0.00096   0.00338   0.00373   0.00957   0.00028   0.00078   0.00043   0.00106  -0.00056  -0.00155
-19.62453   0.01707   0.08306  -0.00002  -0.00083   0.00000   0.00049  -0.00023  -0.00146   0.00004   0.00017   0.00015   0.00035   0.00008  -0.00036  -0.00012   0.00005  -0.00000   0.00002  -0.00001  -0.00007   0.00000   0.00001   0.00001   0.00002   0.00001  -0.00006  -0.00008   0.00004   0.00000   0.00000  -0.00000  -0.00004  -0.00001  -0.00003   0.00001   0.00002   0.00002   0.00007   0.00000   0.00000  -0.00000   0.00001  -0.00003  -0.00012   0.00001   0.00003   0.00002   0.00002   0.00001  -0.00002   0.00011   0.00001   0.00526   0.03412   0.00032   0.00587  -0.00070   0.00788  -0.00019   0.00120  -0.00089   0.00186   0.00150   0.00718   0.00428   0.00641   0.00001   0.00014   0.00003  -0.00046   0.00001  -0.00007  -0.00002   0.00004   0.00012   0.00059   0.00057   0.00094  -0.00001  -0.00010   0.00004  -0.00046  -0.00001   0.00011   0.00011  -0.00028   0.00016   0.00067  -0.00025  -0.00038   0.00002   0.00034  -0.00008   0.00110  -0.00003   0.00025  -0.00004   0.00011   0.00019   0.00098   0.00013   0.00021   0.04596   0.21588   0.02121   0.10091   0.00150   0.00772   0.00227   0.01049   0.00122   0.00633   0.00413   0.01847  -0.00026  -0.00126   0.00047   0.00204   0.00025   0.00123   0.01062   0.05108   0.00079   0.00416   0.00028   0.00131   0.00065   0.00341   0.00271   0.00970   0.00020   0.00079   0.00031   0.00108  -0.00040  -0.00157
-19.57447   0.01163   0.08364   0.00001  -0.00082   0.00002   0.00049  -0.00022  -0.00147   0.00004   0.00018   0.00016   0.00035   0.00008  -0.00035  -0.00012   0.00005  -0.00000   0.00002  -0.00001  -0.00007   0.00000   0.00001   0.00001   0.00002   0.00001  -0.00006  -0.00008   0.00004   0.00000   0.00000  -0.00000  -0.00004  -0.00001  -0.00003   0.00001   0.00002   0.00002   0.00007  -0.00000   0.00000   0.00000   0.00001  -0.00003  -0.00012   0.00001   0.00003   0.00002   0.00002   0.00001  -0.00002   0.00010   0.00002   0.00318   0.03428  -0.00006   0.00586  -0.00076   0.00785  -0.00021   0.00119  -0.00081   0.00182   0.00102   0.00723   0.00335   0.00658   0.00000   0.00014   0.00004  -0.00046   0.00001  -0.00007  -0.00001   0.00004   0.00008   0.00059   0.00043   0.00096  -0.00001  -0.00010   0.00004  -0.00045  -0.00001   0.00011   0.00009  -0.00027   0.00012   0.00067  -0.00019  -0.00039   0.00000   0.00034  -0.00009   0.00110  -0.00004   0.00025  -0.00004   0.00011   0.00013   0.00099   0.00010   0.00021   0.03170   0.21747   0.01464   0.10164   0.00101   0.00777   0.00157   0.01057   0.00083   0.00637   0.00285   0.01861  -0.00018  -0.00127   0.00032   0.00206   0.00017   0.00124   0.00728   0.05144   0.00053   0.00418   0.00019   0.00132   0.00044   0.00343   0.00197   0.00980   0.00014   0.00079   0.00023   0.00109  -0.00029  -0.00159
-19.52441   0.00789   0.08404   0.00007  -0.00082   0.00008   0.00049  -0.00025  -0.00148   0.00005   0.00018   0.00019   0.00036   0.00007  -0.00035  -0.00012   0.00004   0.00000   0.00002  -0.00001  -0.00007   0.00000   0.00001   0.00001   0.00002   0.00001  -0.00006  -0.00009   0.00003   0.00000   0.00000  -0.00000  -0.00004  -0.00001  -0.00003   0.00002   0.00003   0.00002   0.00007  -0.00000   0.00000   0.00000   0.00001  -0.00003  -0.00012   0.00002   0.00003   0.00002   0.00002   0.00001  -0.00002   0.00009   0.00002   0.00167   0.03436  -0.00038   0.00585  -0.00075   0.00781  -0.00022   0.00118  -0.00076   0.00178   0.00066   0.00726   0.00266   0.00671  -0.00000   0.00014   0.00003  -0.00046   0.00001  -0.00007  -0.00001   0.00004   0.00006   0.00060   0.00033   0.00097  -0.00000  -0.00010   0.00004  -0.00045  -0.00001   0.00011   0.00007  -0.00027   0.00009   0.00068  -0.00015  -0.00040  -0.00002   0.00034  -0.00008   0.00109  -0.00004   0.00025  -0.00004   0.00011   0.00008   0.00099   0.00008   0.00022   0.02192   0.21857   0.01014   0.10215   0.00068   0.00780   0.00108   0.01062   0.00056   0.00640   0.00198   0.01871  -0.00012  -0.00127   0.00022   0.00207   0.00012   0.00125   0.00500   0.05169   0.00035   0.00420   0.00013   0.00133   0.00029   0.00345   0.00143   0.00987   0.00010   0.00080   0.00017   0.00110  -0.00020  -0.00160
-19.47434   0.00548   0.08431   0.00018  -0.00081   0.00020   0.00050  -0.00032  -0.00150   0.00008   0.00018   0.00026   0.00038   0.00005  -0.00035  -0.00014   0.00004   0.00001   0.00002  -0.00001  -0.00007   0.00000   0.00001   0.00001   0.00002   0.00000  -0.00006  -0.00011   0.00003   0.00000   0.00000  -0.00001  -0.00004  -0.00001  -0.00003   0.00002   0.00003   0.00002   0.00008  -0.00000   0.00000   0.00001   0.00001  -0.00004  -0.00013   0.00002   0.00003   0.00002   0.00002   0.00000  -0.00002   0.00010   0.00003   0.00046   0.03439  -0.00073   0.00581  -0.00076   0.00777  -0.00024   0.00116  -0.00078   0.00174   0.00039   0.00728   0.00228   0.00683  -0.00001   0.00014   0.00003  -0.00046   0.00001  -0.00007  -0.00001   0.00004   0.00004   0.00060   0.00026   0.00099   0.00000  -0.00010   0.00004  -0.00045  -0.00001   0.00011   0.00007  -0.00027   0.00007   0.00068  -0.00012  -0.00040  -0.00003   0.00034  -0.00008   0.00109  -0.00004   0.00025  -0.00003   0.00010   0.00005   0.00099   0.00006   0.00022   0.01579   0.21936   0.00731   0.10251   0.00047   0.00783   0.00077   0.01066   0.00039   0.00642   0.00145   0.01878  -0.00008  -0.00128   0.00016   0.00208   0.00008   0.00125   0.00359   0.05187   0.00024   0.00421   0.00009   0.00133   0.00020   0.00346   0.00109   0.00993   0.00007   0.00080   0.00013   0.00111  -0.00015  -0.00161
-19.42428   0.00414   0.08452   0.00035  -0.00079   0.00039   0.00052  -0.00044  -0.00152   0.00012   0.00019   0.00038   0.00040   0.00004  -0.00035  -0.00019   0.00003   0.00001   0.00002  -0.00002  -0.00007   0.00001   0.00001   0.00002   0.00002   0.00000  -0.00006  -0.00014   0.00002   0.00000   0.00000  -0.00001  -0.00004  -0.00002  -0.00003   0.00003   0.00003   0.00002   0.00008  -0.00000   0.00000   0.00002   0.00002  -0.00005  -0.00013   0.00003   0.00003   0.00003   0.00003   0.00000  -0.00002   0.00012   0.00003  -0.00059   0.03436  -0.00116   0.00575  -0.00085   0.00773  -0.00030   0.00115  -0.00090   0.00169   0.00020   0.00729   0.00224   0.00694  -0.00001   0.00014   0.00003  -0.00046   0.00001  -0.00007  -0.00001   0.00004   0.00003   0.00060   0.00024   0.00100   0.00001  -0.00010   0.00004  -0.00045  -0.00002   0.00011   0.00008  -0.00026   0.00005   0.00068  -0.00012  -0.00041  -0.00005   0.00034  -0.00009   0.00108  -0.00005   0.00024  -0.00004   0.00010   0.00003   0.00099   0.00006   0.00022   0.01266   0.21999   0.00585   0.10281   0.00035   0.00784   0.00060   0.01069   0.00030   0.00643   0.00119   0.01884  -0.00006  -0.00128   0.00013   0.00208   0.00006   0.00125   0.00288   0.05202   0.00017   0.00422   0.00007   0.00134   0.00015   0.00347   0.00092   0.00997   0.00006   0.00081   0.00010   0.00111  -0.00012  -0.00161
-19.37422   0.00361   0.08470   0.00059  -0.00077   0.00066   0.00056  -0.00060  -0.00155   0.00017   0.00020   0.00050   0.00042   0.00004  -0.00034  -0.00024   0.00001   0.00002   0.00002  -0.00003  -0.00007   0.00001   0.00001   0.00003   0.00002   0.00000  -0.00006  -0.00019   0.00001   0.00000   0.00000  -0.00001  -0.00004  -0.00002  -0.00003   0.00003   0.00003   0.00002   0.00008  -0.00000   0.00000   0.00003   0.00002  -0.00006  -0.00013   0.00004   0.00004   0.00004   0.00003   0.00000  -0.00002   0.00015   0.00004  -0.00151   0.03428  -0.00170   0.00567  -0.00101   0.00768  -0.00037   0.00113  -0.00108   0.00164   0.00008   0.00729   0.00243   0.00706  -0.00002   0.00013   0.00004  -0.00045   0.00001  -0.00007  -0.00001   0.00004   0.00002   0.00060   0.00024   0.00101   0.00002  -0.00010   0.00005  -0.00045  -0.00002   0.00011   0.00010  -0.00026   0.00005   0.00069  -0.00013  -0.00042  -0.00007   0.00033  -0.00010   0.00108  -0.00006   0.00024  -0.00005   0.00010   0.00001   0.00099   0.00006   0.00022   0.01174   0.22058   0.00540   0.10308   0.00030   0.00786   0.00055   0.01072   0.00026   0.00645   0.00114   0.01890  -0.00006  -0.00128   0.00012   0.00209   0.00006   0.00126   0.00268   0.05215   0.00015   0.00423   0.00006   0.00134   0.00014   0.00347   0.00088   0.01002   0.00005   0.00081   0.00010   0.00112  -0.00011  -0.00162
-19.32416   0.00357   0.08488   0.00089  -0.00072   0.00101   0.00061  -0.00074  -0.00159   0.00019   0.00021   0.00058   0.00045   0.00007  -0.00034  -0.00030  -0.00000   0.00003   0.00002  -0.00003  -0.00007   0.00001   0.00001   0.00003   0.00002   0.00000  -0.00006  -0.00023  -0.00000   0.00000   0.00000  -0.00001  -0.00004  -0.00002  -0.00003   0.00003   0.00003   0.00001   0.00008  -0.00000   0.00000   0.00004   0.00002  -0.00008  -0.00014   0.00005   0.00004   0.00004   0.00003   0.00000  -0.00002   0.00019   0.00005  -0.00223   0.03417  -0.00232   0.00555  -0.00117   0.00762  -0.00042   0.00111  -0.00122   0.00158   0.00006   0.00730   0.00271   0.00720  -0.00003   0.00013   0.00004  -0.00045   0.00001  -0.00007  -0.00002   0.00004   0.00002   0.00060   0.00027   0.00102   0.00004  -0.00009   0.00006  -0.00044  -0.00003   0.00011   0.00011  -0.00025   0.00005   0.00069  -0.00014  -0.00042  -0.00010   0.00033  -0.00012   0.00107  -0.00006   0.00024  -0.00005   0.00010   0.00001   0.00100   0.00007   0.00023   0.01205   0.22118   0.00552   0.10335   0.00030   0.00787   0.00057   0.01075   0.00026   0.00646   0.00119   0.01896  -0.00006  -0.00128   0.00013   0.00210   0.00006   0.00126   0.00277   0.05229   0.00015   0.00424   0.00006   0.00134   0.00014   0.00348   0.00091   0.01006   0.00005   0.00081   0.00010   0.00112  -0.00011  -0.00162
-19.27409   0.00377   0.08507   0.00124  -0.00066   0.00143   0.00068  -0.00084  -0.00163   0.00019   0.00022   0.00054   0.00048   0.00017  -0.00033  -0.00034  -0.00002   0.00004   0.00002  -0.00004  -0.00007   0.00001   0.00001   0.00003   0.00003   0.00002  -0.00006  -0.00025  -0.00001   0.00000   0.00000  -0.00001  -0.00005  -0.00002  -0.00003   0.00003   0.00003   0.00000   0.00008  -0.00000   0.00000   0.00006   0.00002  -0.00009  -0.00014   0.00004   0.00004   0.00004   0.00003   0.00001  -0.00002   0.00021   0.00006  -0.00264   0.03404  -0.00296   0.00540  -0.00127   0.00756  -0.00043   0.00109  -0.00121   0.00152   0.00020   0.00731   0.00288   0.00734  -0.00005   0.00013   0.00005  -0.00045   0.00001  -0.00007  -0.00001   0.00004   0.00003   0.00060   0.00028   0.00104   0.00005  -0.00009   0.00007  -0.00044  -0.00002   0.00010   0.00010  -0.00025   0.00008   0.00069  -0.00016  -0.00043  -0.00013   0.00032  -0.00013   0.00107  -0.00007   0.00024  -0.00005   0.00010   0.00002   0.00100   0.00007   0.00023   0.01271   0.22182   0.00581   0.10364   0.00031   0.00789   0.00063   0.01078   0.00027   0.00647   0.00127   0.01902  -0.00006  -0.00129   0.00014   0.00210   0.00006   0.00126   0.00292   0.05244   0.00016   0.00424   0.00007   0.00135   0.00014   0.00349   0.00095   0.01011   0.00005   0.00081   0.00011   0.00113  -0.00011  -0.00163
-19.22403   0.00404   0.08527   0.00163  -0.00058   0.00193   0.00077  -0.00087  -0.00167   0.00013   0.00022   0.00033   0.00049   0.00035  -0.00031  -0.00035  -0.00004   0.00006   0.00002  -0.00004  -0.00008   0.00001   0.00001   0.00002   0.00003   0.00004  -0.00006  -0.00026  -0.00003   0.00001   0.00001  -0.00001  -0.00005  -0.00001  -0.00003   0.00002   0.00003  -0.00001   0.00008  -0.00000   0.00000   0.00008   0.00003  -0.00009  -0.00014   0.00003   0.00004   0.00003   0.00003   0.00003  -0.00002   0.00021   0.00007  -0.00263   0.03391  -0.00358   0.00522  -0.00126   0.00749  -0.00037   0.00107  -0.00099   0.00147   0.00052   0.00733   0.00284   0.00748  -0.00006   0.00013   0.00005  -0.00045   0.00001  -0.00007  -0.00001   0.00004   0.00005   0.00060   0.00028   0.00105   0.00007  -0.00009   0.00007  -0.00044  -0.00002   0.00010   0.00005  -0.00024   0.00013   0.00070  -0.00016  -0.00044  -0.00016   0.00032  -0.00013   0.00106  -0.00006   0.00023  -0.00004   0.00009   0.00005   0.00100   0.00007   0.00024   0.01312   0.22248   0.00600   0.10394   0.00033   0.00791   0.00070   0.01081   0.00028   0.00649   0.00130   0.01909  -0.00006  -0.00129   0.00016   0.00211   0.00006   0.00127   0.00298   0.05258   0.00016   0.00425   0.00008   0.00135   0.00014   0.00349   0.00095   0.01016   0.00005   0.00082   0.00011   0.00113  -0.00011  -0.00163
-19.17397   0.00430   0.08548   0.00205  -0.00047   0.00250   0.00090  -0.00082  -0.00171   0.00002   0.00022  -0.00005   0.00049   0.00061  -0.00028  -0.00033  -0.00005   0.00007   0.00003  -0.00003  -0.00008   0.00000   0.00001   0.00001   0.00003   0.00007  -0.00005  -0.00024  -0.00004   0.00001   0.00001  -0.00001  -0.00005  -0.00000  -0.00003   0.00000   0.00003  -0.00003   0.00008  -0.00000   0.00000   0.00010   0.00003  -0.00008  -0.00015   0.00001   0.00004   0.00001   0.00003   0.00005  -0.00002   0.00020   0.00008  -0.00223   0.03380  -0.00418   0.00501  -0.00114   0.00744  -0.00023   0.00106  -0.00056   0.00144   0.00100   0.00738   0.00257   0.00761  -0.00008   0.00012   0.00004  -0.00045   0.00000  -0.00007  -0.00000   0.00004   0.00009   0.00061   0.00026   0.00107   0.00010  -0.00008   0.00007  -0.00043   0.00000   0.00010  -0.00004  -0.00024   0.00021   0.00071  -0.00015  -0.00045  -0.00018   0.00031  -0.00012   0.00105  -0.00003   0.00023  -0.00002   0.00009   0.00010   0.00100   0.00006   0.00024   0.01308   0.22313   0.00601   0.10424   0.00034   0.00792   0.00077   0.01085   0.00028   0.00650   0.00128   0.01915  -0.00006  -0.00129   0.00017   0.00212   0.00006   0.00127   0.00289   0.05273   0.00017   0.00426   0.00008   0.00135   0.00014   0.00350   0.00090   0.01020   0.00005   0.00082   0.00011   0.00114  -0.00011  -0.00164
-19.12390   0.00452   0.08571   0.00248  -0.00035   0.00309   0.00105  -0.00072  -0.00175  -0.00012   0.00022  -0.00052   0.00047   0.00091  -0.00024  -0.00029  -0.00007   0.00008   0.00003  -0.00003  -0.00008  -0.00000   0.00001  -0.00001   0.00003   0.00011  -0.00005  -0.00021  -0.00005   0.00001   0.00001  -0.00001  -0.00005   0.00001  -0.00003  -0.00001   0.00003  -0.00005   0.00007  -0.00000   0.00000   0.00012   0.00004  -0.00007  -0.00015  -0.00002   0.00004  -0.00002   0.00003   0.00008  -0.00001   0.00017   0.00009  -0.00157   0.03372  -0.00473   0.00478  -0.00095   0.00739  -0.00005   0.00106   0.00001   0.00144   0.00158   0.00746   0.00214   0.00772  -0.00009   0.00012   0.00004  -0.00044  -0.00000  -0.00007   0.00001   0.00004   0.00013   0.00062   0.00022   0.00108   0.00012  -0.00008   0.00006  -0.00043   0.00002   0.00010  -0.00015  -0.00025   0.00030   0.00073  -0.00013  -0.00045  -0.00020   0.00030  -0.00010   0.00105  -0.00001   0.00023   0.00000   0.00009   0.00016   0.00101   0.00005   0.00024   0.01265   0.22376   0.00585   0.10454   0.00036   0.00794   0.00084   0.01089   0.00027   0.00651   0.00121   0.01921  -0.00006  -0.00130   0.00018   0.00213   0.00006   0.00127   0.00269   0.05286   0.00016   0.00427   0.00009   0.00136   0.00013   0.00351   0.00082   0.01024   0.00005   0.00082   0.00011   0.00114  -0.00010  -0.00165