  COHP#    atomMU    atomNU   distance   translation   ICOHP (at) eF 
                                                          for spin 1 
      1      O205      W271    1.72150     0   0   0       -10.22708 
      1   O205_2s   W271_6s    1.72150     0   0   0        -1.46925 
      1   O205_2s W271_5d_xy    1.72150     0   0   0        -1.03867 
      1   O205_2s W271_5d_yz    1.72150     0   0   0        -0.10141 
      1   O205_2s W271_5d_z^2    1.72150     0   0   0        -0.31286 
      1   O205_2s W271_5d_xz    1.72150     0   0   0        -0.12941 
      1   O205_2s W271_5d_x^2-y^2    1.72150     0   0   0        -0.02805 
      1 O205_2p_y   W271_6s    1.72150     0   0   0        -0.06353 
      1 O205_2p_y W271_5d_xy    1.72150     0   0   0        -0.47256 
      1 O205_2p_y W271_5d_yz    1.72150     0   0   0        -0.03188 
      1 O205_2p_y W271_5d_z^2    1.72150     0   0   0        -0.08122 
      1 O205_2p_y W271_5d_xz    1.72150     0   0   0        -0.31092 
      1 O205_2p_y W271_5d_x^2-y^2    1.72150     0   0   0        -1.36478 
      1 O205_2p_z   W271_6s    1.72150     0   0   0        -0.00621 
      1 O205_2p_z W271_5d_xy    1.72150     0   0   0        -0.37217 
      1 O205_2p_z W271_5d_yz    1.72150     0   0   0        -0.55689 
      1 O205_2p_z W271_5d_z^2    1.72150     0   0   0        -0.49098 
      1 O205_2p_z W271_5d_xz    1.72150     0   0   0        -0.81162 
      1 O205_2p_z W271_5d_x^2-y^2    1.72150     0   0   0        -0.00789 
      1 O205_2p_x   W271_6s    1.72150     0   0   0        -0.03485 
      1 O205_2p_x W271_5d_xy    1.72150     0   0   0        -1.30707 
      1 O205_2p_x W271_5d_yz    1.72150     0   0   0        -0.36151 
      1 O205_2p_x W271_5d_z^2    1.72150     0   0   0        -0.21282 
      1 O205_2p_x W271_5d_xz    1.72150     0   0   0        -0.14805 
      1 O205_2p_x W271_5d_x^2-y^2    1.72150     0   0   0        -0.51249 
      2      O204      W271    1.95590     0   0   0        -4.63203 
      2   O204_2s   W271_6s    1.95590     0   0   0        -0.68354 
      2   O204_2s W271_5d_xy    1.95590     0   0   0        -0.29419 
      2   O204_2s W271_5d_yz    1.95590     0   0   0        -0.02018 
      2   O204_2s W271_5d_z^2    1.95590     0   0   0        -0.17182 
      2   O204_2s W271_5d_xz    1.95590     0   0   0        -0.05693 
      2   O204_2s W271_5d_x^2-y^2    1.95590     0   0   0        -0.15606 
      2 O204_2p_y   W271_6s    1.95590     0   0   0         0.00989 
      2 O204_2p_y W271_5d_xy    1.95590     0   0   0        -0.03681 
      2 O204_2p_y W271_5d_yz    1.95590     0   0   0        -0.00203 
      2 O204_2p_y W271_5d_z^2    1.95590     0   0   0        -0.05292 
      2 O204_2p_y W271_5d_xz    1.95590     0   0   0        -0.05195 
      2 O204_2p_y W271_5d_x^2-y^2    1.95590     0   0   0        -0.66877 
      2 O204_2p_z   W271_6s    1.95590     0   0   0        -0.05386 
      2 O204_2p_z W271_5d_xy    1.95590     0   0   0        -0.12758 
      2 O204_2p_z W271_5d_yz    1.95590     0   0   0        -0.00820 
      2 O204_2p_z W271_5d_z^2    1.95590     0   0   0        -0.30558 
      2 O204_2p_z W271_5d_xz    1.95590     0   0   0        -0.01782 
      2 O204_2p_z W271_5d_x^2-y^2    1.95590     0   0   0        -0.17442 
      2 O204_2p_x   W271_6s    1.95590     0   0   0        -0.02687 
      2 O204_2p_x W271_5d_xy    1.95590     0   0   0        -0.82209 
      2 O204_2p_x W271_5d_yz    1.95590     0   0   0        -0.25202 
      2 O204_2p_x W271_5d_z^2    1.95590     0   0   0        -0.23875 
      2 O204_2p_x W271_5d_xz    1.95590     0   0   0        -0.31010 
      2 O204_2p_x W271_5d_x^2-y^2    1.95590     0   0   0        -0.10942 
      3        C2      O204    1.41999     0   0   0        -9.88793 
      3     C2_2s   O204_2s    1.41999     0   0   0        -0.69430 
      3     C2_2s O204_2p_y    1.41999     0   0   0        -0.40128 
      3     C2_2s O204_2p_z    1.41999     0   0   0        -1.05324 
      3     C2_2s O204_2p_x    1.41999     0   0   0        -0.21203 
      3   C2_2p_y   O204_2s    1.41999     0   0   0        -0.84082 
      3   C2_2p_y O204_2p_y    1.41999     0   0   0         0.00166 
      3   C2_2p_y O204_2p_z    1.41999     0   0   0        -1.04972 
      3   C2_2p_y O204_2p_x    1.41999     0   0   0        -0.12778 
      3   C2_2p_z   O204_2s    1.41999     0   0   0        -1.92204 
      3   C2_2p_z O204_2p_y    1.41999     0   0   0        -0.79755 
      3   C2_2p_z O204_2p_z    1.41999     0   0   0        -0.54924 
      3   C2_2p_z O204_2p_x    1.41999     0   0   0        -0.48692 
      3   C2_2p_x   O204_2s    1.41999     0   0   0        -0.51406 
      3   C2_2p_x O204_2p_y    1.41999     0   0   0        -0.19990 
      3   C2_2p_x O204_2p_z    1.41999     0   0   0        -0.88133 
      3   C2_2p_x O204_2p_x    1.41999     0   0   0        -0.15937 