ESCALE ; pCOHP file generated by LOBSTER. Energy is shifted such that the Fermi level lies at 0 eV.
         2          1        301  -1.22640e+01   2.78618e+00  -2.23054e+00 
Average
No.1:O198->W264(1.7068211574462899)
-10.03344   0.00000  -4.98807   0.00000  -4.98807
 -9.98328  -0.00136  -4.98814  -0.00136  -4.98814
 -9.93311  -0.00142  -4.98821  -0.00142  -4.98821
 -9.88294  -0.00137  -4.98828  -0.00137  -4.98828
 -9.83278  -0.00122  -4.98834  -0.00122  -4.98834
 -9.78261  -0.00095  -4.98839  -0.00095  -4.98839
 -9.73244  -0.00060  -4.98842  -0.00060  -4.98842
 -9.68227  -0.00020  -4.98843  -0.00020  -4.98843
 -9.63211   0.00018  -4.98842   0.00018  -4.98842
 -9.58194   0.00050  -4.98839   0.00050  -4.98839
 -9.53177   0.00069  -4.98836   0.00069  -4.98836
 -9.48161   0.00067  -4.98832   0.00067  -4.98832
 -9.43144   0.00037  -4.98830   0.00037  -4.98830
 -9.38127  -0.00031  -4.98832  -0.00031  -4.98832
 -9.33110  -0.00144  -4.98839  -0.00144  -4.98839
 -9.28094  -0.00310  -4.98855  -0.00310  -4.98855
 -9.23077  -0.00534  -4.98882  -0.00534  -4.98882
 -9.18060  -0.00819  -4.98923  -0.00819  -4.98923
 -9.13043  -0.01149  -4.98980  -0.01149  -4.98980
 -9.08027  -0.01487  -4.99055  -0.01487  -4.99055
 -9.03010  -0.01770  -4.99144  -0.01770  -4.99144
 -8.97993  -0.01936  -4.99241  -0.01936  -4.99241
 -8.92977  -0.01945  -4.99338  -0.01945  -4.99338
 -8.87960  -0.01804  -4.99429  -0.01804  -4.99429
 -8.82943  -0.01558  -4.99507  -0.01558  -4.99507
 -8.77926  -0.01274  -4.99571  -0.01274  -4.99571
 -8.72910  -0.01002  -4.99621  -0.01002  -4.99621
 -8.67893  -0.00764  -4.99660  -0.00764  -4.99660
 -8.62876  -0.00557  -4.99688  -0.00557  -4.99688
 -8.57860  -0.00373  -4.99706  -0.00373  -4.99706
 -8.52843  -0.00209  -4.99717  -0.00209  -4.99717
 -8.47826  -0.00076  -4.99721  -0.00076  -4.99721
 -8.42809   0.00005  -4.99720   0.00005  -4.99720
 -8.37793   0.00014  -4.99720   0.00014  -4.99720
 -8.32776  -0.00054  -4.99722  -0.00054  -4.99722
 -8.27759  -0.00186  -4.99732  -0.00186  -4.99732
 -8.22742  -0.00356  -4.99750  -0.00356  -4.99750
 -8.17726  -0.00532  -4.99776  -0.00532  -4.99776
 -8.12709  -0.00689  -4.99811  -0.00689  -4.99811
 -8.07692  -0.00811  -4.99851  -0.00811  -4.99851
 -8.02676  -0.00886  -4.99896  -0.00886  -4.99896
 -7.97659  -0.00910  -4.99942  -0.00910  -4.99942
 -7.92642  -0.00884  -4.99986  -0.00884  -4.99986
 -7.87625  -0.00815  -5.00027  -0.00815  -5.00027
 -7.82609  -0.00718  -5.00063  -0.00718  -5.00063
 -7.77592  -0.00611  -5.00093  -0.00611  -5.00093
 -7.72575  -0.00523  -5.00120  -0.00523  -5.00120
 -7.67559  -0.00507  -5.00145  -0.00507  -5.00145
 -7.62542  -0.00663  -5.00178  -0.00663  -5.00178
 -7.57525  -0.01165  -5.00237  -0.01165  -5.00237
 -7.52508  -0.02275  -5.00351  -0.02275  -5.00351
 -7.47492  -0.04299  -5.00567  -0.04299  -5.00567
 -7.42475  -0.07458  -5.00941  -0.07458  -5.00941
 -7.37458  -0.11702  -5.01528  -0.11702  -5.01528
 -7.32441  -0.16549  -5.02358  -0.16549  -5.02358
 -7.27425  -0.21095  -5.03416  -0.21095  -5.03416
 -7.22408  -0.24290  -5.04635  -0.24290  -5.04635
 -7.17391  -0.25404  -5.05909  -0.25404  -5.05909
 -7.12375  -0.24453  -5.07136  -0.24453  -5.07136
 -7.07358  -0.22262  -5.08253  -0.22262  -5.08253
 -7.02341  -0.20087  -5.09261  -0.20087  -5.09261
 -6.97324  -0.18960  -5.10212  -0.18960  -5.10212
 -6.92308  -0.19196  -5.11175  -0.19196  -5.11175
 -6.87291  -0.20400  -5.12198  -0.20400  -5.12198
 -6.82274  -0.22072  -5.13305  -0.22072  -5.13305
 -6.77258  -0.24493  -5.14534  -0.24493  -5.14534
 -6.72241  -0.29393  -5.16009  -0.29393  -5.16009
 -6.67224  -0.39910  -5.18011  -0.39910  -5.18011
 -6.62207  -0.59558  -5.20999  -0.59558  -5.20999
 -6.57191  -0.90295  -5.25529  -0.90295  -5.25529
 -6.52174  -1.30313  -5.32066  -1.30313  -5.32066
 -6.47157  -1.72866  -5.40738  -1.72866  -5.40738
 -6.42140  -2.07519  -5.51149  -2.07519  -5.51149
 -6.37124  -2.24111  -5.62392  -2.24111  -5.62392
 -6.32107  -2.17618  -5.73309  -2.17618  -5.73309
 -6.27090  -1.90860  -5.82884  -1.90860  -5.82884
 -6.22074  -1.53105  -5.90565  -1.53105  -5.90565
 -6.17057  -1.15528  -5.96361  -1.15528  -5.96361
 -6.12040  -0.86514  -6.00701  -0.86514  -6.00701
 -6.07023  -0.69362  -6.04181  -0.69362  -6.04181
 -6.02007  -0.62779  -6.07330  -0.62779  -6.07330
 -5.96990  -0.62882  -6.10485  -0.62882  -6.10485
 -5.91973  -0.65301  -6.13761  -0.65301  -6.13761
 -5.86957  -0.66671  -6.17105  -0.66671  -6.17105
 -5.81940  -0.65396  -6.20386  -0.65396  -6.20386
 -5.76923  -0.61705  -6.23482  -0.61705  -6.23482
 -5.71906  -0.57038  -6.26343  -0.57038  -6.26343
 -5.66890  -0.53059  -6.29005  -0.53059  -6.29005
 -5.61873  -0.50774  -6.31552  -0.50774  -6.31552
 -5.56856  -0.50186  -6.34070  -0.50186  -6.34070
 -5.51839  -0.50596  -6.36608  -0.50596  -6.36608
 -5.46823  -0.51242  -6.39179  -0.51242  -6.39179
 -5.41806  -0.51883  -6.41782  -0.51883  -6.41782
 -5.36789  -0.53061  -6.44443  -0.53061  -6.44443
 -5.31773  -0.56078  -6.47257  -0.56078  -6.47257
 -5.26756  -0.62928  -6.50414  -0.62928  -6.50414
 -5.21739  -0.76441  -6.54248  -0.76441  -6.54248
 -5.16722  -1.00598  -6.59295  -1.00598  -6.59295
 -5.11706  -1.40618  -6.66350  -1.40618  -6.66350
 -5.06689  -2.02090  -6.76488  -2.02090  -6.76488
 -5.01672  -2.88579  -6.90965  -2.88579  -6.90965
 -4.96656  -3.97942  -7.10929  -3.97942  -7.10929
 -4.91639  -5.18942  -7.36963  -5.18942  -7.36963
 -4.86622  -6.30859  -7.68611  -6.30859  -7.68611
 -4.81605  -7.08274  -8.04143  -7.08274  -8.04143
 -4.76589  -7.30342  -8.40782  -7.30342  -8.40782
 -4.71572  -6.90230  -8.75409  -6.90230  -8.75409
 -4.66555  -5.98979  -9.05459  -5.98979  -9.05459
 -4.61538  -4.80948  -9.29586  -4.80948  -9.29586
 -4.56522  -3.63360  -9.47815  -3.63360  -9.47815
 -4.51505  -2.66157  -9.61167  -2.66157  -9.61167
 -4.46488  -1.97363  -9.71069  -1.97363  -9.71069
 -4.41472  -1.54937  -9.78841  -1.54937  -9.78841
 -4.36455  -1.32170  -9.85472  -1.32170  -9.85472
 -4.31438  -1.22764  -9.91631  -1.22764  -9.91631
 -4.26421  -1.23277  -9.97815  -1.23277  -9.97815
 -4.21405  -1.32707 -10.04473  -1.32707 -10.04473
 -4.16388  -1.50298 -10.12013  -1.50298 -10.12013
 -4.11371  -1.73147 -10.20699  -1.73147 -10.20699
 -4.06355  -1.95196 -10.30491  -1.95196 -10.30491
 -4.01338  -2.08593 -10.40956  -2.08593 -10.40956
 -3.96321  -2.06987 -10.51340  -2.06987 -10.51340
 -3.91304  -1.88751 -10.60809  -1.88751 -10.60809
 -3.86288  -1.57863 -10.68729  -1.57863 -10.68729
 -3.81271  -1.21753 -10.74837  -1.21753 -10.74837
 -3.76254  -0.87685 -10.79236  -0.87685 -10.79236
 -3.71237  -0.60039 -10.82248  -0.60039 -10.82248
 -3.66221  -0.39821 -10.84245  -0.39821 -10.84245
 -3.61204  -0.25874 -10.85543  -0.25874 -10.85543
 -3.56187  -0.16439 -10.86368  -0.16439 -10.86368
 -3.51171  -0.10077 -10.86873  -0.10077 -10.86873
 -3.46154  -0.05856 -10.87167  -0.05856 -10.87167
 -3.41137  -0.03175 -10.87327  -0.03175 -10.87327
 -3.36120  -0.01584 -10.87406  -0.01584 -10.87406
 -3.31104  -0.00716 -10.87442  -0.00716 -10.87442
 -3.26087  -0.00283 -10.87456  -0.00283 -10.87456
 -3.21070  -0.00087 -10.87460  -0.00087 -10.87460
 -3.16054  -0.00007 -10.87461  -0.00007 -10.87461
 -3.11037   0.00024 -10.87460   0.00024 -10.87460
 -3.06020   0.00037 -10.87458   0.00037 -10.87458
 -3.01003   0.00045 -10.87455   0.00045 -10.87455
 -2.95987   0.00049 -10.87453   0.00049 -10.87453
 -2.90970   0.00051 -10.87450   0.00051 -10.87450
 -2.85953   0.00049 -10.87448   0.00049 -10.87448
 -2.80936   0.00042 -10.87446   0.00042 -10.87446
 -2.75920   0.00032 -10.87444   0.00032 -10.87444
 -2.70903   0.00022 -10.87443   0.00022 -10.87443
 -2.65886   0.00013 -10.87442   0.00013 -10.87442
 -2.60870   0.00007 -10.87442   0.00007 -10.87442
 -2.55853   0.00004 -10.87442   0.00004 -10.87442
 -2.50836   0.00002 -10.87442   0.00002 -10.87442
 -2.45819   0.00001 -10.87442   0.00001 -10.87442
 -2.40803   0.00000 -10.87442   0.00000 -10.87442
 -2.35786   0.00000 -10.87442   0.00000 -10.87442
 -2.30769   0.00000 -10.87442   0.00000 -10.87442
 -2.25753   0.00000 -10.87442   0.00000 -10.87442
 -2.20736   0.00000 -10.87442   0.00000 -10.87442
 -2.15719   0.00000 -10.87442   0.00000 -10.87442
 -2.10702   0.00000 -10.87442   0.00000 -10.87442
 -2.05686   0.00000 -10.87442   0.00000 -10.87442
 -2.00669   0.00000 -10.87442   0.00000 -10.87442
 -1.95652   0.00000 -10.87442   0.00000 -10.87442
 -1.90635   0.00000 -10.87442   0.00000 -10.87442
 -1.85619   0.00000 -10.87442   0.00000 -10.87442
 -1.80602  -0.00000 -10.87442  -0.00000 -10.87442
 -1.75585  -0.00000 -10.87442  -0.00000 -10.87442
 -1.70569   0.00000 -10.87442   0.00000 -10.87442
 -1.65552   0.00000 -10.87442   0.00000 -10.87442
 -1.60535   0.00000 -10.87442   0.00000 -10.87442
 -1.55518   0.00000 -10.87442   0.00000 -10.87442
 -1.50502   0.00000 -10.87442   0.00000 -10.87442
 -1.45485   0.00000 -10.87442   0.00000 -10.87442
 -1.40468   0.00000 -10.87442   0.00000 -10.87442
 -1.35452   0.00000 -10.87442   0.00000 -10.87442
 -1.30435   0.00000 -10.87442   0.00000 -10.87442
 -1.25418   0.00001 -10.87442   0.00001 -10.87442
 -1.20401   0.00006 -10.87441   0.00006 -10.87441
 -1.15385   0.00025 -10.87440   0.00025 -10.87440
 -1.10368   0.00093 -10.87436   0.00093 -10.87436
 -1.05351   0.00307 -10.87420   0.00307 -10.87420
 -1.00334   0.00890 -10.87375   0.00890 -10.87375
 -0.95318   0.02280 -10.87261   0.02280 -10.87261
 -0.90301   0.05156 -10.87002   0.05156 -10.87002
 -0.85284   0.10292 -10.86486   0.10292 -10.86486
 -0.80268   0.18138 -10.85576   0.18138 -10.85576
 -0.75251   0.28223 -10.84160   0.28223 -10.84160
 -0.70234   0.38773 -10.82215   0.38773 -10.82215
 -0.65217   0.47030 -10.79856   0.47030 -10.79856
 -0.60201   0.50367 -10.77329   0.50367 -10.77329
 -0.55184   0.47624 -10.74940   0.47624 -10.74940
 -0.50167   0.39759 -10.72945   0.39759 -10.72945
 -0.45151   0.29306 -10.71475   0.29306 -10.71475
 -0.40134   0.19072 -10.70518   0.19072 -10.70518
 -0.35117   0.10959 -10.69968   0.10959 -10.69968
 -0.30100   0.05559 -10.69690   0.05559 -10.69690
 -0.25084   0.02490 -10.69565   0.02490 -10.69565
 -0.20067   0.00985 -10.69515   0.00985 -10.69515
 -0.15050   0.00344 -10.69498   0.00344 -10.69498
 -0.10033   0.00106 -10.69493   0.00106 -10.69493
 -0.05017   0.00029 -10.69491   0.00029 -10.69491
 -0.00000   0.00007 -10.69491   0.00007 -10.69491
  0.05017   0.00004 -10.69491   0.00004 -10.69491
  0.10033   0.00010 -10.69490   0.00010 -10.69490
  0.15050   0.00038 -10.69488   0.00038 -10.69488
  0.20067   0.00122 -10.69482   0.00122 -10.69482
  0.25084   0.00349 -10.69465   0.00349 -10.69465
  0.30100   0.00883 -10.69420   0.00883 -10.69420
  0.35117   0.01971 -10.69321   0.01971 -10.69321
  0.40134   0.03885 -10.69127   0.03885 -10.69127
  0.45151   0.06762 -10.68787   0.06762 -10.68787
  0.50167   0.10392 -10.68266   0.10392 -10.68266
  0.55184   0.14102 -10.67559   0.14102 -10.67559
  0.60201   0.16912 -10.66710   0.16912 -10.66710
  0.65217   0.17974 -10.65808   0.17974 -10.65808
  0.70234   0.17140 -10.64949   0.17140 -10.64949
  0.75251   0.15402 -10.64176   0.15402 -10.64176
  0.80268   0.15206 -10.63413   0.15206 -10.63413
  0.85284   0.20867 -10.62366   0.20867 -10.62366
  0.90301   0.39043 -10.60408   0.39043 -10.60408
  0.95318   0.78443 -10.56472   0.78443 -10.56472
  1.00334   1.47233 -10.49086   1.47233 -10.49086
  1.05351   2.47388 -10.36675   2.47388 -10.36675
  1.10368   3.68194 -10.18204   3.68194 -10.18204
  1.15385   4.84193  -9.93913   4.84193  -9.93913
  1.20401   5.62284  -9.65705   5.62284  -9.65705
  1.25418   5.76541  -9.36782   5.76541  -9.36782
  1.30435   5.21950  -9.10597   5.21950  -9.10597
  1.35452   4.17205  -8.89667   4.17205  -8.89667
  1.40468   2.94438  -8.74896   2.94438  -8.74896
  1.45485   1.83479  -8.65691   1.83479  -8.65691
  1.50502   1.00991  -8.60625   1.00991  -8.60625
  1.55518   0.49200  -8.58156   0.49200  -8.58156
  1.60535   0.21457  -8.57080   0.21457  -8.57080
  1.65552   0.08900  -8.56633   0.08900  -8.56633
  1.70569   0.04462  -8.56410   0.04462  -8.56410
  1.75585   0.03852  -8.56216   0.03852  -8.56216
  1.80602   0.04851  -8.55973   0.04851  -8.55973
  1.85619   0.06331  -8.55655   0.06331  -8.55655
  1.90635   0.07642  -8.55272   0.07642  -8.55272
  1.95652   0.08432  -8.54849   0.08432  -8.54849
  2.00669   0.08675  -8.54414   0.08675  -8.54414
  2.05686   0.08655  -8.53980   0.08655  -8.53980
  2.10702   0.08787  -8.53539   0.08787  -8.53539
  2.15719   0.09350  -8.53070   0.09350  -8.53070
  2.20736   0.10318  -8.52552   0.10318  -8.52552
  2.25753   0.11416  -8.51979   0.11416  -8.51979
  2.30769   0.12354  -8.51360   0.12354  -8.51360
  2.35786   0.13061  -8.50704   0.13061  -8.50704
  2.40803   0.13812  -8.50011   0.13812  -8.50011
  2.45819   0.15302  -8.49244   0.15302  -8.49244
  2.50836   0.18966  -8.48292   0.18966  -8.48292
  2.55853   0.27796  -8.46898   0.27796  -8.46898
  2.60870   0.47577  -8.44511   0.47577  -8.44511
  2.65886   0.87752  -8.40109   0.87752  -8.40109
  2.70903   1.60318  -8.32066   1.60318  -8.32066
  2.75920   2.75111  -8.18264   2.75111  -8.18264
  2.80936   4.31730  -7.96606   4.31730  -7.96606
  2.85953   6.11952  -7.65906   6.11952  -7.65906
  2.90970   7.79187  -7.26816   7.79187  -7.26816
  2.95987   8.89365  -6.82199   8.89365  -6.82199
  3.01003   9.09904  -6.36552   9.09904  -6.36552
  3.06020   8.35786  -5.94623   8.35786  -5.94623
  3.11037   6.91971  -5.59909   6.91971  -5.59909
  3.16054   5.20630  -5.33790   5.20630  -5.33790
  3.21070   3.62175  -5.15621   3.62175  -5.15621
  3.26087   2.41652  -5.03498   2.41652  -5.03498
  3.31104   1.65839  -4.95178   1.65839  -4.95178
  3.36120   1.28392  -4.88737   1.28392  -4.88737
  3.41137   1.17145  -4.82860   1.17145  -4.82860
  3.46154   1.19630  -4.76859   1.19630  -4.76859
  3.51171   1.26105  -4.70532   1.26105  -4.70532
  3.56187   1.30855  -4.63968   1.30855  -4.63968
  3.61204   1.32249  -4.57333   1.32249  -4.57333
  3.66221   1.31670  -4.50728   1.31670  -4.50728
  3.71237   1.31658  -4.44123   1.31658  -4.44123
  3.76254   1.34203  -4.37390   1.34203  -4.37390
  3.81271   1.39972  -4.30368   1.39972  -4.30368
  3.86288   1.48550  -4.22916   1.48550  -4.22916
  3.91304   1.59073  -4.14935   1.59073  -4.14935
  3.96321   1.70619  -4.06376   1.70619  -4.06376
  4.01338   1.82245  -3.97233   1.82245  -3.97233
  4.06355   1.92978  -3.87552   1.92978  -3.87552
  4.11371   2.02007  -3.77418   2.02007  -3.77418
  4.16388   2.08989  -3.66934   2.08989  -3.66934
  4.21405   2.14202  -3.56188   2.14202  -3.56188
  4.26421   2.18355  -3.45233   2.18355  -3.45233
  4.31438   2.22172  -3.34088   2.22172  -3.34088
  4.36455   2.26046  -3.22747   2.26046  -3.22747
  4.41472   2.29965  -3.11211   2.29965  -3.11211
  4.46488   2.33651  -2.99489   2.33651  -2.99489
  4.51505   2.36668  -2.87616   2.36668  -2.87616
  4.56522   2.38405  -2.75656   2.38405  -2.75656
  4.61538   2.38062  -2.63713   2.38062  -2.63713
  4.66555   2.34824  -2.51933   2.34824  -2.51933
  4.71572   2.28242  -2.40482   2.28242  -2.40482
  4.76589   2.18592  -2.29516   2.18592  -2.29516
  4.81605   2.06968  -2.19133   2.06968  -2.19133
  4.86622   1.95002  -2.09351   1.95002  -2.09351
  4.91639   1.84322  -2.00104   1.84322  -2.00104
  4.96656   1.75966  -1.91276   1.75966  -1.91276
  5.01672   1.70016  -1.82747   1.70016  -1.82747