 vasp.5.4.4.18Apr17-6-g9f103f2a35 (build Oct 20 2021 08:33:53) complex           
 executed on             LinuxGNU date 2025.03.08  14:11:42
 running on   32 total cores
 distrk:  each k-point on   32 cores,    1 groups
 distr:  one band on NCORES_PER_BAND=   4 cores,    8 groups


--------------------------------------------------------------------------------------------------------


 INCAR:
 POTCAR:    PAW_PBE C 08Apr2002                   
 POTCAR:    PAW_PBE H 15Jun2001                   
 POTCAR:    PAW_PBE O 08Apr2002                   
 POTCAR:    PAW_PBE Si 05Jan2001                  
 POTCAR:    PAW_PBE W 08Apr2002                   
 POTCAR:    PAW_PBE C 08Apr2002                   
   VRHFIN =C: s2p2                                                              
   LEXCH  = PE                                                                  
   EATOM  =   147.1560 eV,   10.8157 Ry                                         
                                                                                
   TITEL  = PAW_PBE C 08Apr2002                                                 
   LULTRA =        F    use ultrasoft PP ?                                      
   IUNSCR =        1    unscreen: 0-lin 1-nonlin 2-no                           
   RPACOR =    1.200    partial core radius                                     
   POMASS =   12.011; ZVAL   =    4.000    mass and valenz                      
   RCORE  =    1.500    outmost cutoff radius                                   
   RWIGS  =    1.630; RWIGS  =    0.863    wigner-seitz radius (au A)           
   ENMAX  =  400.000; ENMIN  =  300.000 eV                                      
   ICORE  =        2    local potential                                         
   LCOR   =        T    correct aug charges                                     
   LPAW   =        T    paw PP                                                  
   EAUG   =  644.873                                                            
   DEXC   =    0.000                                                            
   RMAX   =    1.529    core radius for proj-oper                               
   RAUG   =    1.300    factor for augmentation sphere                          
   RDEP   =    1.501    radius for radial grids                                 
   RDEPT  =    1.300    core radius for aug-charge                              
                                                                                
   Atomic configuration                                                         
    4 entries                                                                   
     n  l   j            E        occ.                                          
     1  0  0.50      -273.3789   2.0000                                         
     2  0  0.50       -13.7508   2.0000                                         
     2  1  0.50        -5.2854   2.0000                                         
     3  2  1.50        -5.4423   0.0000                                         
   Description                                                                  
     l       E           TYP  RCUT    TYP  RCUT                                 
     0    -13.7508458     23  1.200                                             
     0     -8.2022199     23  1.200                                             
     1     -5.2854383     23  1.500                                             
     1     34.0145650     23  1.500                                             
     2     -5.4423304      7  1.500                                             
  local pseudopotential read in
  partial core-charges read in
  partial kinetic energy density read in
  atomic valenz-charges read in
  non local Contribution for L=           0  read in
    real space projection operators read in
  non local Contribution for L=           0  read in
    real space projection operators read in
  non local Contribution for L=           1  read in
    real space projection operators read in
  non local Contribution for L=           1  read in
    real space projection operators read in
    PAW grid and wavefunctions read in

   number of l-projection  operators is LMAX  =           4
   number of lm-projection operators is LMMAX =           8

 POTCAR:    PAW_PBE H 15Jun2001                   
   VRHFIN =H: ultrasoft test                                                    
   LEXCH  = PE                                                                  
   EATOM  =    12.4884 eV,    0.9179 Ry                                         
                                                                                
   TITEL  = PAW_PBE H 15Jun2001                                                 
   LULTRA =        F    use ultrasoft PP ?                                      
   IUNSCR =        0    unscreen: 0-lin 1-nonlin 2-no                           
   RPACOR =    0.000    partial core radius                                     
   POMASS =    1.000; ZVAL   =    1.000    mass and valenz                      
   RCORE  =    1.100    outmost cutoff radius                                   
   RWIGS  =    0.700; RWIGS  =    0.370    wigner-seitz radius (au A)           
   ENMAX  =  250.000; ENMIN  =  200.000 eV                                      
   RCLOC  =    0.701    cutoff for local pot                                    
   LCOR   =        T    correct aug charges                                     
   LPAW   =        T    paw PP                                                  
   EAUG   =  400.000                                                            
   RMAX   =    1.123    core radius for proj-oper                               
   RAUG   =    1.200    factor for augmentation sphere                          
   RDEP   =    1.112    radius for radial grids                                 
   RDEPT  =    0.926    core radius for aug-charge                              
                                                                                
   Atomic configuration                                                         
    2 entries                                                                   
     n  l   j            E        occ.                                          
     1  0  0.50        -6.4927   1.0000                                         
     2  1  0.50        -3.4015   0.0000                                         
   Description                                                                  
     l       E           TYP  RCUT    TYP  RCUT                                 
     0     -6.4927494     23  1.100                                             
     0      6.8029130     23  1.100                                             
     1     -4.0817478     23  1.100                                             
  local pseudopotential read in
  atomic valenz-charges read in
  non local Contribution for L=           0  read in
    real space projection operators read in
  non local Contribution for L=           0  read in
    real space projection operators read in
  non local Contribution for L=           1  read in
    real space projection operators read in
    PAW grid and wavefunctions read in

   number of l-projection  operators is LMAX  =           3
   number of lm-projection operators is LMMAX =           5

 POTCAR:    PAW_PBE O 08Apr2002                   
   VRHFIN =O: s2p4                                                              
   LEXCH  = PE                                                                  
   EATOM  =   432.3788 eV,   31.7789 Ry                                         
                                                                                
   TITEL  = PAW_PBE O 08Apr2002                                                 
   LULTRA =        F    use ultrasoft PP ?                                      
   IUNSCR =        1    unscreen: 0-lin 1-nonlin 2-no                           
   RPACOR =    1.200    partial core radius                                     
   POMASS =   16.000; ZVAL   =    6.000    mass and valenz                      
   RCORE  =    1.520    outmost cutoff radius                                   
   RWIGS  =    1.550; RWIGS  =    0.820    wigner-seitz radius (au A)           
   ENMAX  =  400.000; ENMIN  =  300.000 eV                                      
   ICORE  =        2    local potential                                         
   LCOR   =        T    correct aug charges                                     
   LPAW   =        T    paw PP                                                  
   EAUG   =  605.392                                                            
   DEXC   =    0.000                                                            
   RMAX   =    1.553    core radius for proj-oper                               
   RAUG   =    1.300    factor for augmentation sphere                          
   RDEP   =    1.550    radius for radial grids                                 
   RDEPT  =    1.329    core radius for aug-charge                              
                                                                                
   Atomic configuration                                                         
    4 entries                                                                   
     n  l   j            E        occ.                                          
     1  0  0.50      -514.6923   2.0000                                         
     2  0  0.50       -23.9615   2.0000                                         
     2  1  0.50        -9.0305   4.0000                                         
     3  2  1.50        -9.5241   0.0000                                         
   Description                                                                  
     l       E           TYP  RCUT    TYP  RCUT                                 
     0    -23.9615318     23  1.200                                             
     0     -9.5240782     23  1.200                                             
     1     -9.0304911     23  1.520                                             
     1      8.1634956     23  1.520                                             
     2     -9.5240782      7  1.500                                             
  local pseudopotential read in
  partial core-charges read in
  partial kinetic energy density read in
  kinetic energy density of atom read in
  atomic valenz-charges read in
  non local Contribution for L=           0  read in
    real space projection operators read in
  non local Contribution for L=           0  read in
    real space projection operators read in
  non local Contribution for L=           1  read in
    real space projection operators read in
  non local Contribution for L=           1  read in
    real space projection operators read in
    PAW grid and wavefunctions read in

   number of l-projection  operators is LMAX  =           4
   number of lm-projection operators is LMMAX =           8

 POTCAR:    PAW_PBE Si 05Jan2001                  
   VRHFIN =Si: s2p2                                                             
   LEXCH  = PE                                                                  
   EATOM  =   103.0669 eV,    7.5752 Ry                                         
                                                                                
   TITEL  = PAW_PBE Si 05Jan2001                                                
   LULTRA =        F    use ultrasoft PP ?                                      
   IUNSCR =        1    unscreen: 0-lin 1-nonlin 2-no                           
   RPACOR =    1.500    partial core radius                                     
   POMASS =   28.085; ZVAL   =    4.000    mass and valenz                      
   RCORE  =    1.900    outmost cutoff radius                                   
   RWIGS  =    2.480; RWIGS  =    1.312    wigner-seitz radius (au A)           
   ENMAX  =  245.345; ENMIN  =  184.009 eV                                      
   ICORE  =        2    local potential                                         
   LCOR   =        T    correct aug charges                                     
   LPAW   =        T    paw PP                                                  
   EAUG   =  322.069                                                            
   DEXC   =    0.000                                                            
   RMAX   =    1.950    core radius for proj-oper                               
   RAUG   =    1.300    factor for augmentation sphere                          
   RDEP   =    1.993    radius for radial grids                                 
   RDEPT  =    1.837    core radius for aug-charge                              
                                                                                
   Atomic configuration                                                         
    6 entries                                                                   
     n  l   j            E        occ.                                          
     1  0  0.50     -1785.8828   2.0000                                         
     2  0  0.50      -139.4969   2.0000                                         
     2  1  1.50       -95.5546   6.0000                                         
     3  0  0.50       -10.8127   2.0000                                         
     3  1  0.50        -4.0811   2.0000                                         
     3  2  1.50        -4.0817   0.0000                                         
   Description                                                                  
     l       E           TYP  RCUT    TYP  RCUT                                 
     0    -10.8127223     23  1.900                                             
     0     -7.6451159     23  1.900                                             
     1     -4.0811372     23  1.900                                             
     1      2.4879257     23  1.900                                             
     2     -4.0817478      7  1.900                                             
  local pseudopotential read in
  partial core-charges read in
  partial kinetic energy density read in
  atomic valenz-charges read in
  non local Contribution for L=           0  read in
    real space projection operators read in
  non local Contribution for L=           0  read in
    real space projection operators read in
  non local Contribution for L=           1  read in
    real space projection operators read in
  non local Contribution for L=           1  read in
    real space projection operators read in
    PAW grid and wavefunctions read in

   number of l-projection  operators is LMAX  =           4
   number of lm-projection operators is LMMAX =           8

 POTCAR:    PAW_PBE W 08Apr2002                   
   VRHFIN =W : 6s5d                                                             
   LEXCH  = PE                                                                  
   EATOM  =   204.6103 eV,   15.0384 Ry                                         
                                                                                
   TITEL  = PAW_PBE W 08Apr2002                                                 
   LULTRA =        F    use ultrasoft PP ?                                      
   IUNSCR =        1    unscreen: 0-lin 1-nonlin 2-no                           
   RPACOR =    2.330    partial core radius                                     
   POMASS =  183.850; ZVAL   =    6.000    mass and valenz                      
   RCORE  =    2.750    outmost cutoff radius                                   
   RWIGS  =    2.750; RWIGS  =    1.455    wigner-seitz radius (au A)           
   ENMAX  =  223.057; ENMIN  =  167.293 eV                                      
   RCLOC  =    2.147    cutoff for local pot                                    
   LCOR   =        T    correct aug charges                                     
   LPAW   =        T    paw PP                                                  
   EAUG   =  373.438                                                            
   DEXC   =    0.000                                                            
   RMAX   =    2.801    core radius for proj-oper                               
   RAUG   =    1.300    factor for augmentation sphere                          
   RDEP   =    2.886    radius for radial grids                                 
   RDEPT  =    2.230    core radius for aug-charge                              
                                                                                
   Atomic configuration                                                         
   16 entries                                                                   
     n  l   j            E        occ.                                          
     1  0  0.50    -69465.5836   2.0000                                         
     2  0  0.50    -11986.2642   2.0000                                         
     2  1  1.50    -10479.8616   6.0000                                         
     3  0  0.50     -2759.0758   2.0000                                         
     3  1  1.50     -2313.1857   6.0000                                         
     3  2  2.50     -1801.1185  10.0000                                         
     4  0  0.50      -567.6791   2.0000                                         
     4  1  1.50      -421.4694   6.0000                                         
     4  2  2.50      -236.3473  10.0000                                         
     4  3  3.50       -31.2666  14.0000                                         
     5  0  0.50       -77.1085   2.0000                                         
     5  1  1.50       -41.3856   6.0000                                         
     5  2  2.50        -3.3185   5.0000                                         
     6  0  0.50        -5.1438   1.0000                                         
     6  1  0.50        -3.8096   0.0000                                         
     5  3  2.50        -1.3606   0.0000                                         
   Description                                                                  
     l       E           TYP  RCUT    TYP  RCUT                                 
     2     -3.3185288     23  2.500                                             
     2     -1.5965414     23  2.500                                             
     0     -5.1438054     23  2.500                                             
     0      4.9117504     23  2.500                                             
     1      2.7211652     23  2.750                                             
     1     27.2116520     23  2.750                                             
  local pseudopotential read in
  partial core-charges read in
  partial kinetic energy density read in
  atomic valenz-charges read in
  non local Contribution for L=           2  read in
    real space projection operators read in
  non local Contribution for L=           2  read in
    real space projection operators read in
  non local Contribution for L=           0  read in
    real space projection operators read in
  non local Contribution for L=           0  read in
    real space projection operators read in
  non local Contribution for L=           1  read in
    real space projection operators read in
  non local Contribution for L=           1  read in
    real space projection operators read in
    PAW grid and wavefunctions read in

   number of l-projection  operators is LMAX  =           6
   number of lm-projection operators is LMMAX =          18

 Optimization of the real space projectors (new method)

 maximal supplied QI-value         = 25.13
 optimisation between [QCUT,QGAM] = [ 11.31, 22.87] = [ 35.82,146.48] Ry 
 Optimized for a Real-space Cutoff    1.00 Angstroem

   l    n(q)    QCUT    max X(q) W(low)/X(q) W(high)/X(q)  e(spline) 
   0      7    11.310   115.676    0.43E-03    0.13E-02    0.19E-06
   0      7    11.310    87.132    0.43E-03    0.13E-02    0.18E-06
   1      6    11.310     4.429    0.42E-03    0.74E-03    0.11E-06
   1      6    11.310     2.733    0.34E-03    0.55E-03    0.92E-07
 Optimization of the real space projectors (new method)

 maximal supplied QI-value         = 34.20
 optimisation between [QCUT,QGAM] = [ 11.29, 22.57] = [ 35.68,142.71] Ry 
 Optimized for a Real-space Cutoff    1.16 Angstroem

   l    n(q)    QCUT    max X(q) W(low)/X(q) W(high)/X(q)  e(spline) 
   0      8    11.287    19.460    0.40E-03    0.73E-03    0.16E-06
   0      8    11.287    12.209    0.38E-03    0.70E-03    0.15E-06
   1      7    11.287     4.655    0.22E-03    0.25E-04    0.22E-06
 Optimization of the real space projectors (new method)

 maximal supplied QI-value         = 24.76
 optimisation between [QCUT,QGAM] = [ 11.39, 22.77] = [ 36.31,145.25] Ry 
 Optimized for a Real-space Cutoff    1.00 Angstroem

   l    n(q)    QCUT    max X(q) W(low)/X(q) W(high)/X(q)  e(spline) 
   0      7    11.387    20.381    0.39E-03    0.13E-02    0.15E-06
   0      7    11.387    15.268    0.42E-03    0.14E-02    0.17E-06
   1      6    11.387     5.964    0.41E-03    0.11E-02    0.17E-06
   1      6    11.387     5.382    0.39E-03    0.87E-03    0.15E-06
 Optimization of the real space projectors (new method)

 maximal supplied QI-value         = 19.84
 optimisation between [QCUT,QGAM] = [ 11.31, 22.82] = [ 35.82,145.81] Ry 
 Optimized for a Real-space Cutoff    1.16 Angstroem

   l    n(q)    QCUT    max X(q) W(low)/X(q) W(high)/X(q)  e(spline) 
   0      8    11.310   159.560    0.27E-03    0.30E-03    0.39E-07
   0      8    11.310   115.863    0.27E-03    0.30E-03    0.38E-07
   1      7    11.310    88.339    0.28E-03    0.28E-03    0.77E-07
   1      7    11.310    48.592    0.27E-03    0.27E-03    0.74E-07
 Optimization of the real space projectors (new method)

 maximal supplied QI-value         = 13.61
 optimisation between [QCUT,QGAM] = [ 11.43, 22.86] = [ 36.58,146.31] Ry 
 Optimized for a Real-space Cutoff    1.56 Angstroem

   l    n(q)    QCUT    max X(q) W(low)/X(q) W(high)/X(q)  e(spline) 
   2     10    11.429   130.855    0.22E-03    0.64E-03    0.11E-05
   2     10    11.429   114.007    0.22E-03    0.64E-03    0.11E-05
   0     11    11.429    84.709    0.39E-04    0.67E-04    0.23E-06
   0     11    11.429    49.163    0.35E-04    0.62E-04    0.21E-06
   1     10    11.429    15.765    0.84E-04    0.15E-03    0.24E-06
   1     10    11.429    10.638    0.58E-04    0.12E-03    0.19E-06

 ----------------------------------------------------------------------------- 
|                                                                             |
|  ADVICE TO THIS USER RUNNING 'VASP/VAMP'   (HEAR YOUR MASTER'S VOICE ...):  |
|                                                                             |
|      You enforced a specific xc-type in the INCAR file,                     |
|      a different type was found on the POTCAR file                          |
|          I HOPE YOU KNOW, WHAT YOU ARE  DOING                               |
|                                                                             |
 ----------------------------------------------------------------------------- 

  PAW_PBE C 08Apr2002                   :
 energy of atom  1       EATOM= -147.1560
 kinetic energy error for atom=    0.0076 (will be added to EATOM!!)
  PAW_PBE H 15Jun2001                   :
 energy of atom  2       EATOM=  -12.4884
 kinetic energy error for atom=    0.0020 (will be added to EATOM!!)
  PAW_PBE O 08Apr2002                   :
 energy of atom  3       EATOM= -432.3788
 kinetic energy error for atom=    0.0224 (will be added to EATOM!!)
  PAW_PBE Si 05Jan2001                  :
 energy of atom  4       EATOM= -103.0669
 kinetic energy error for atom=    0.0006 (will be added to EATOM!!)
  PAW_PBE W 08Apr2002                   :
 energy of atom  5       EATOM= -204.6103
 kinetic energy error for atom=    0.0017 (will be added to EATOM!!)


 POSCAR: C  H  O  Si W                           
  positions in direct lattice
  velocities in cartesian coordinates
 exchange correlation table for  LEXCH =        9
   RHO(1)=    0.500       N(1)  =     2000
   RHO(2)=  100.500       N(2)  =     4000

 VTST: version 3.2, (02/03/18)

 CHAIN: initializing optimizer
 
 OPT: Using VASP Conjugate-Gradient optimizer
 CHAIN: Read ICHAIN            0

 POSCAR: C  H  O  Si W                           
  positions in direct lattice
  velocities in cartesian coordinates



--------------------------------------------------------------------------------------------------------


 ion  position               nearest neighbor table
   1  0.624  0.550  0.757-  51 1.09  50 1.09   2 1.34
   2  0.583  0.550  0.792-  52 1.10   1 1.34   4 1.51
   3  0.394  0.448  0.679-  53 1.11   5 1.51 279 1.91
   4  0.543  0.613  0.803-  55 1.10  56 1.10  54 1.10   2 1.51
   5  0.362  0.396  0.713-  58 1.10  57 1.10  59 1.10   3 1.51
   6  0.762  0.103  0.652- 134 0.97
   7  0.926  0.279  0.356-  82 0.98
   8  0.793  0.207  0.373- 117 0.97
   9  0.975  0.944  0.325- 126 0.97
  10  0.626  0.963  0.375- 128 0.98
  11  0.821  0.995  0.369- 146 0.97
  12  0.750  0.141  0.458- 184 0.98
  13  0.915  0.249  0.509- 189 0.97
  14  0.583  0.304  0.306- 194 0.97
  15  0.891  0.335  0.615- 100 0.98
  16  0.587  0.358  0.615- 145 0.97
  17  0.594  0.871  0.578- 187 0.99
  18  0.032  0.339  0.652- 193 0.97
  19  0.935  0.420  0.454- 182 0.98
  20  0.746  0.530  0.422-  96 1.00
  21  0.800  0.384  0.636- 174 0.97
  22  0.591  0.569  0.378- 108 0.99
  23  0.718  0.646  0.383- 131 0.99
  24  0.841  0.542  0.420- 137 0.98
  25  0.005  0.604  0.358- 142 0.97
  26  0.828  0.712  0.468- 183 0.99
  27  0.871  0.596  0.724-  62 0.97
  28  0.520  0.986  0.422- 144 0.99
  29  0.223  0.980  0.393- 185 1.00
  30  0.216  0.238  0.319- 200 0.99
  31  0.158  0.330  0.279- 191 0.97
  32  0.342  0.156  0.331- 192 0.98
  33  0.223  0.046  0.323- 199 0.97
  34  0.511  0.826  0.547- 202 0.97
  35  0.390  0.248  0.650-  87 0.97
  36  0.244  0.094  0.599- 138 0.98
  37  0.315  0.487  0.442-  61 0.99
  38  0.409  0.439  0.406- 150 0.98
  39  0.398  0.793  0.389- 188 0.97
  40  0.244  0.655  0.294- 196 0.97
  41  0.312  0.418  0.369- 197 0.98
  42  0.405  0.584  0.339- 198 0.97
  43  0.139  0.488  0.352- 190 0.98
  44  0.593  0.698  0.352-  91 0.97
  45  0.469  0.861  0.444- 201 0.99
  46  0.118  0.323  0.610- 110 0.97
  47  0.071  0.666  0.645- 141 0.97
  48  0.230  0.390  0.683- 186 0.97
  49  0.248  0.815  0.670- 195 0.97
  50  0.651  0.502  0.750-   1 1.09
  51  0.631  0.598  0.733-   1 1.09
  52  0.577  0.500  0.814-   2 1.10
  53  0.370  0.468  0.647-   3 1.11
  54  0.548  0.631  0.842-   4 1.10
  55  0.551  0.660  0.779-   4 1.10
  56  0.498  0.596  0.799-   4 1.10
  57  0.344  0.349  0.692-   5 1.10
  58  0.389  0.375  0.743-   5 1.10
  59  0.325  0.425  0.730-   5 1.10
  60  0.369  0.648  0.439- 233 1.66 268 1.68
  61  0.347  0.504  0.420-  37 0.99 268 1.67
  62  0.861  0.565  0.696-  27 0.97 239 1.64
  63  0.349  0.959  0.531- 244 1.68 277 1.70
  64  0.033  0.932  0.529- 259 1.63 270 1.65
  65  0.636  0.079  0.489- 237 1.60 226 1.65
  66  0.069  0.052  0.395- 225 1.64 217 1.65
  67  0.452  0.130  0.421- 242 1.65 223 1.65
  68  0.806  0.214  0.483- 241 1.67 238 1.69
  69  0.973  0.181  0.599- 219 1.63 249 1.65
  70  0.275  0.299  0.449- 265 1.65 275 1.66
  71  0.556  0.775  0.442- 246 1.51 273 1.66
  72  0.392  0.971  0.620- 263 1.65 277 1.66
  73  0.178  0.350  0.405- 265 1.66 240 1.67
  74  0.867  0.684  0.637- 243 1.64 239 1.64
  75  0.866  0.967  0.467- 235 1.60 250 1.65
  76  0.301  0.761  0.458- 233 1.65 247 1.67
  77  0.422  0.261  0.380- 242 1.67 262 1.67
  78  0.811  0.465  0.520- 269 1.63 216 1.64
  79  0.984  0.072  0.521- 259 1.68 219 1.69
  80  0.516  0.455  0.629- 278 1.67 279 1.99
  81  0.035  0.920  0.429- 270 1.64 217 1.65
  82  0.963  0.303  0.351-   7 0.98 218 1.65
  83  0.070  0.336  0.376- 218 1.64 240 1.65
  84  0.208  0.729  0.395- 247 1.66 257 1.67
  85  0.039  0.419  0.499- 272 1.64 245 1.65
  86  0.237  0.287  0.588- 253 1.63 230 1.63
  87  0.397  0.196  0.645-  35 0.97 224 1.64
  88  0.455  0.558  0.588- 278 1.68 255 1.70
  89  0.910  0.749  0.557- 243 1.64 222 1.65
  90  0.869  0.108  0.442- 250 1.64 238 1.65
  91  0.573  0.667  0.376-  44 0.97 246 1.68
  92  0.142  0.159  0.376- 271 1.65 225 1.65
  93  0.351  0.765  0.607- 215 1.62 256 1.64
  94  0.911  0.845  0.483- 235 1.62 222 1.66
  95  0.061  0.537  0.442- 272 1.66 214 1.67
  96  0.708  0.555  0.420-  20 1.00 228 1.67
  97  0.075  0.817  0.483- 270 1.50 252 1.65
  98  0.700  0.828  0.433- 227 1.53 260 1.65
  99  0.730  0.049  0.543- 226 1.64 261 1.64
 100  0.917  0.301  0.631-  15 0.98 249 1.63
 101  0.735  0.853  0.613- 234 1.66 231 1.68
 102  0.625  0.527  0.486- 236 1.58 228 1.68
 103  0.557  0.630  0.467- 246 1.52 236 1.63
 104  0.426  0.247  0.556- 267 1.68 224 1.68
 105  0.978  0.728  0.477- 252 1.65 222 1.65
 106  0.655  0.594  0.633- 274 1.64 220 1.66
 107  0.397  0.746  0.515- 215 1.66 233 1.66
 108  0.603  0.518  0.386-  22 0.99 228 1.65
 109  0.721  0.631  0.557- 258 1.63 274 1.65
 110  0.142  0.366  0.614-  46 0.97 230 1.64
 111  0.066  0.549  0.542- 272 1.63 276 1.64
 112  0.819  0.884  0.537- 235 1.65 234 1.67
 113  0.828  0.355  0.452- 241 1.65 216 1.65
 114  0.528  0.297  0.531- 267 1.61 248 1.63
 115  0.738  0.499  0.596- 274 1.65 269 1.66
 116  0.557  0.172  0.395- 254 1.59 223 1.64
 117  0.806  0.256  0.383-   8 0.97 241 1.67
 118  0.237  0.953  0.508- 244 1.58 229 1.67
 119  0.693  0.776  0.542- 258 1.63 231 1.64
 120  0.924  0.950  0.553- 259 1.64 235 1.65
 121  0.526  0.318  0.399- 254 1.45 262 1.66
 122  0.468  0.990  0.546- 263 1.69 264 1.70
 123  0.838  0.095  0.540- 238 1.66 261 1.66
 124  0.538  0.116  0.486- 237 1.61 223 1.67
 125  0.350  0.187  0.440- 275 1.63 242 1.65
 126  0.012  0.962  0.335-   9 0.97 217 1.65
 127  0.458  0.598  0.680- 255 1.65 279 1.97
 128  0.655  0.925  0.379-  10 0.98 227 1.66
 129  0.076  0.686  0.436- 214 1.65 252 1.66
 130  0.454  0.404  0.553- 278 1.67 267 1.70
 131  0.719  0.700  0.380-  23 0.99 260 1.65
 132  0.451  0.702  0.600- 215 1.63 255 1.63
 133  0.753  0.709  0.476- 258 1.63 260 1.69
 134  0.779  0.121  0.621-   6 0.97 261 1.64
 135  0.993  0.308  0.448- 245 1.66 218 1.68
 136  0.534  0.511  0.533- 278 1.64 236 1.65
 137  0.817  0.499  0.423-  24 0.98 216 1.69
 138  0.236  0.146  0.605-  36 0.98 253 1.62
 139  0.204  0.831  0.471- 229 1.50 247 1.63
 140  0.240  0.559  0.523- 232 1.65 221 1.66
 141  0.061  0.625  0.624-  47 0.97 276 1.63
 142  0.046  0.602  0.354-  25 0.97 214 1.65
 143  0.801  0.979  0.606- 234 1.66 261 1.68
 144  0.538  0.028  0.405-  28 0.99 223 1.66
 145  0.605  0.312  0.605-  16 0.97 248 1.64
 146  0.862  0.004  0.369-  11 0.97 250 1.66
 147  0.095  0.149  0.467- 251 1.62 225 1.65
 148  0.171  0.203  0.530- 251 1.61 253 1.63
 149  0.641  0.704  0.455- 246 1.65 260 1.66
 150  0.437  0.410  0.386-  38 0.98 262 1.66
 151  0.574  0.058  0.571- 264 1.62 237 1.65
 152  0.151  0.593  0.389- 257 1.68 214 1.68
 153  0.268  0.602  0.392- 268 1.65 257 1.67
 154  0.440  0.322  0.470- 267 1.65 262 1.69
 155  0.238  0.159  0.430- 271 1.65 275 1.67
 156  0.073  0.150  0.563- 251 1.64 219 1.64
 157  0.845  0.544  0.600- 269 1.66 239 1.66
 158  0.621  0.280  0.411- 266 1.65 254 1.66
 159  0.603  0.892  0.467- 273 1.29 227 1.67
 160  0.031  0.195  0.389- 218 1.66 225 1.66
 161  0.608  0.195  0.548- 237 1.62 248 1.64
 162  0.133  0.938  0.479- 270 1.65 229 1.66
 163  0.080  0.280  0.512- 245 1.64 251 1.65
 164  0.372  0.104  0.570- 277 1.63 224 1.69
 165  0.067  0.697  0.536- 252 1.63 276 1.63
 166  0.666  0.415  0.430- 228 1.65 266 1.65
 167  0.800  0.729  0.564- 258 1.61 243 1.63
 168  0.704  0.957  0.470- 226 1.65 227 1.66
 169  0.599  0.636  0.553- 236 1.62 220 1.64
 170  0.723  0.294  0.452- 241 1.63 266 1.64
 171  0.977  0.314  0.547- 245 1.64 249 1.67
 172  0.158  0.630  0.571- 232 1.63 276 1.65
 173  0.633  0.327  0.508- 248 1.63 266 1.65
 174  0.821  0.396  0.606-  21 0.97 269 1.65
 175  0.959  0.027  0.417- 250 1.64 217 1.65
 176  0.282  0.196  0.519- 275 1.63 253 1.65
 177  0.249  0.443  0.461- 221 1.66 265 1.71
 178  0.273  0.850  0.568- 244 1.64 256 1.65
 179  0.204  0.686  0.487- 232 1.63 247 1.66
 180  0.147  0.476  0.493- 221 1.63 272 1.65
 181  0.225  0.424  0.557- 221 1.61 230 1.63
 182  0.911  0.453  0.474-  19 0.98 216 1.65
 183  0.870  0.705  0.464-  26 0.99 222 1.65
 184  0.738  0.093  0.445-  12 0.98 226 1.66
 185  0.222  0.930  0.408-  29 1.00 229 1.64
 186  0.245  0.402  0.650-  48 0.97 230 1.65
 187  0.631  0.883  0.593-  17 0.99 231 1.62
 188  0.410  0.789  0.423-  39 0.97 233 1.68
 189  0.918  0.196  0.508-  13 0.97 238 1.65
 190  0.133  0.444  0.332-  43 0.98 240 1.65
 191  0.155  0.304  0.311-  31 0.97 240 1.69
 192  0.373  0.131  0.348-  32 0.98 242 1.66
 193  0.033  0.293  0.634-  18 0.97 249 1.66
 194  0.573  0.257  0.320-  14 0.97 254 1.66
 195  0.245  0.771  0.650-  49 0.97 256 1.64
 196  0.207  0.648  0.310-  40 0.97 257 1.65
 197  0.275  0.392  0.367-  41 0.98 265 1.66
 198  0.365  0.598  0.342-  42 0.97 268 1.67
 199  0.226  0.056  0.358-  33 0.97 271 1.69
 200  0.241  0.196  0.329-  30 0.99 271 1.66
 201  0.501  0.892  0.455-  45 0.99 273 1.60
 202  0.550  0.828  0.534-  34 0.97 273 1.67
 203  0.546  0.647  0.635- 220 1.65 255 1.66
 204  0.478  0.122  0.596- 264 1.65 224 1.65
 205  0.262  0.695  0.569- 232 1.65 256 1.65
 206  0.443  0.846  0.582- 263 1.66 215 1.69
 207  0.766  0.618  0.649- 274 1.65 239 1.66
 208  0.845  0.832  0.623- 243 1.66 234 1.68
 209  0.641  0.740  0.621- 220 1.67 231 1.71
 210  0.008  0.033  0.603- 259 1.69 219 1.69
 211  0.284  0.001  0.594- 277 1.69 244 1.70
 212  0.503  0.972  0.629- 263 1.69 264 1.70
 213  0.488  0.453  0.742- 279 1.71
 214  0.083  0.606  0.406- 142 1.65 129 1.65  95 1.67 152 1.68 272 3.13
 215  0.409  0.765  0.575-  93 1.62 132 1.63 107 1.66 206 1.69 256 3.06
 216  0.842  0.441  0.468-  78 1.64 113 1.65 182 1.65 137 1.69
 217  0.017  0.990  0.394-  66 1.65 175 1.65  81 1.65 126 1.65 270 3.11 225 3.13
 218  0.015  0.284  0.391-  83 1.64  82 1.65 160 1.66 135 1.68 245 3.11 225 3.11
 219  0.009  0.115  0.572-  69 1.63 156 1.64  79 1.69 210 1.69 259 2.39 251 3.05 249 3.07
 220  0.610  0.658  0.611- 169 1.64 203 1.65 106 1.66 209 1.67 274 2.87 236 3.14
 221  0.214  0.476  0.510- 181 1.61 180 1.63 140 1.66 177 1.66 232 3.10 265 3.14
 222  0.915  0.756  0.496- 105 1.65 183 1.65  89 1.65  94 1.66 235 2.99 243 3.03
 223  0.521  0.110  0.426- 116 1.64  67 1.65 144 1.66 124 1.67 254 3.08 237 3.12
 224  0.419  0.169  0.590-  87 1.64 204 1.65 104 1.68 164 1.69 264 3.14 277 3.15
 225  0.083  0.139  0.407-  66 1.64 147 1.65  92 1.65 160 1.66 218 3.11 217 3.13 271 3.14
 226  0.702  0.045  0.487-  99 1.64 168 1.65  65 1.65 184 1.66 237 3.09 227 3.10
 227  0.665  0.898  0.437-  98 1.53 168 1.66 128 1.66 159 1.67 273 2.83 260 3.06 226 3.10
 228  0.650  0.504  0.430- 108 1.65 166 1.65  96 1.67 102 1.68 236 3.08
 229  0.198  0.912  0.464- 139 1.50 185 1.64 162 1.66 118 1.67 247 3.01 244 3.06 270 3.07
 230  0.211  0.367  0.602-  86 1.63 181 1.63 110 1.64 186 1.65
 231  0.674  0.814  0.595- 187 1.62 119 1.64 101 1.68 209 1.71 258 2.90
 232  0.217  0.642  0.539- 179 1.63 172 1.63 205 1.65 140 1.65 247 3.09 221 3.10 276 3.12
 233  0.369  0.735  0.459-  76 1.65 107 1.66  60 1.66 188 1.68
 234  0.798  0.888  0.596- 143 1.66 101 1.66 112 1.67 208 1.68 243 2.86 235 2.99 261 3.15
 235  0.880  0.912  0.512-  75 1.60  94 1.62 112 1.65 120 1.65 222 2.99 234 2.99 259 3.05 250 3.13

 236  0.577  0.576  0.512- 102 1.58 169 1.62 103 1.63 136 1.65 246 2.99 228 3.08 220 3.14
 237  0.590  0.115  0.525-  65 1.60 124 1.61 161 1.62 151 1.65 264 2.85 226 3.09 248 3.11 223 3.12

 238  0.858  0.152  0.495- 189 1.65  90 1.65 123 1.66  68 1.69 250 3.07 241 3.15
 239  0.836  0.604  0.646-  62 1.64  74 1.64 207 1.66 157 1.66 274 2.92 243 3.00 269 3.00
 240  0.134  0.360  0.357- 190 1.65  83 1.65  73 1.67 191 1.69 265 3.11
 241  0.791  0.280  0.442- 170 1.63 113 1.65 117 1.67  68 1.67 238 3.15
 242  0.399  0.177  0.396-  67 1.65 125 1.65 192 1.66  77 1.67 262 3.07
 243  0.856  0.750  0.596- 167 1.63  74 1.64  89 1.64 208 1.66 234 2.86 239 3.00 222 3.03
 244  0.283  0.935  0.550- 118 1.58 178 1.64  63 1.68 211 1.70 277 2.38 229 3.06
 245  0.023  0.330  0.502- 163 1.64 171 1.64  85 1.65 135 1.66 249 3.11 218 3.11 251 3.13
 246  0.575  0.695  0.436-  71 1.51 103 1.52 149 1.65  91 1.68 236 2.99 273 3.06 260 3.10
 247  0.230  0.753  0.452- 139 1.63 179 1.66  84 1.66  76 1.67 257 2.97 229 3.01 232 3.09
 248  0.594  0.284  0.548- 173 1.63 114 1.63 145 1.64 161 1.64 237 3.11
 249  0.974  0.272  0.602- 100 1.63  69 1.65 193 1.66 171 1.67 219 3.07 245 3.11
 250  0.889  0.025  0.424-  90 1.64 175 1.64  75 1.65 146 1.66 238 3.07 235 3.13
 251  0.105  0.195  0.518- 148 1.61 147 1.62 156 1.64 163 1.65 219 3.05 245 3.13
 252  0.048  0.733  0.483- 165 1.63 105 1.65  97 1.65 129 1.66 270 3.05 276 3.15
 253  0.232  0.206  0.561- 138 1.62  86 1.63 148 1.63 176 1.65 275 3.03
 254  0.561  0.258  0.381- 121 1.45 116 1.59 158 1.66 194 1.66 262 2.87 223 3.08
 255  0.478  0.628  0.625- 132 1.63 127 1.65 203 1.66  88 1.70 279 2.99 278 3.05
 256  0.281  0.771  0.598- 195 1.64  93 1.64 205 1.65 178 1.65 215 3.06
 257  0.209  0.643  0.372- 196 1.65 153 1.67  84 1.67 152 1.68 247 2.97
 258  0.741  0.710  0.536- 167 1.61 109 1.63 133 1.63 119 1.63 231 2.90 260 2.91 274 3.07
 259  0.987  0.990  0.550-  64 1.63 120 1.64  79 1.68 210 1.69 219 2.39 235 3.05
 260  0.703  0.737  0.434-  98 1.65 131 1.65 149 1.66 133 1.69 258 2.91 227 3.06 246 3.10
 261  0.788  0.060  0.577- 134 1.64  99 1.64 123 1.66 143 1.68 234 3.15
 262  0.456  0.328  0.409- 150 1.66 121 1.66  77 1.67 154 1.69 254 2.87 242 3.07
 263  0.450  0.935  0.595-  72 1.65 206 1.66 212 1.69 122 1.69 264 2.36 277 2.74
 264  0.508  0.041  0.586- 151 1.62 204 1.65 122 1.70 212 1.70 263 2.36 237 2.85 224 3.14
 265  0.244  0.370  0.421-  70 1.65  73 1.66 197 1.66 177 1.71 240 3.11 221 3.14
 266  0.659  0.330  0.450- 170 1.64 158 1.65 166 1.65 173 1.65
 267  0.461  0.318  0.529- 114 1.61 154 1.65 104 1.68 130 1.70
 268  0.337  0.590  0.399- 153 1.65 198 1.67  61 1.67  60 1.68
 269  0.804  0.476  0.580-  78 1.63 174 1.65 157 1.66 115 1.66 274 2.90 239 3.00
 270  0.069  0.899  0.481-  97 1.50  81 1.64 162 1.65  64 1.65 252 3.05 229 3.07 217 3.11
 271  0.212  0.144  0.374-  92 1.65 155 1.65 200 1.66 199 1.69 275 3.12 225 3.14
 272  0.078  0.494  0.495- 111 1.63  85 1.64 180 1.65  95 1.66 276 3.09 214 3.13
 273  0.558  0.852  0.475- 159 1.29 201 1.60  71 1.66 202 1.67 227 2.83 246 3.06
 274  0.719  0.585  0.610- 106 1.64 109 1.65 207 1.65 115 1.65 220 2.87 269 2.90 239 2.92 258 3.07

 275  0.287  0.210  0.459- 176 1.63 125 1.63  70 1.66 155 1.67 253 3.03 271 3.12
 276  0.088  0.625  0.568- 165 1.63 141 1.63 111 1.64 172 1.65 272 3.09 232 3.12 252 3.15
 277  0.353  0.018  0.579- 164 1.63  72 1.66 211 1.69  63 1.70 244 2.38 263 2.74 224 3.15
 278  0.489  0.478  0.574- 136 1.64  80 1.67 130 1.67  88 1.68 255 3.05 279 3.06
 279  0.469  0.490  0.686- 213 1.71   3 1.91 127 1.97  80 1.99 255 2.99 278 3.06

  LATTYP: Found a simple orthorhombic cell.
 ALAT       =    18.1212369514
 B/A-ratio  =     1.2919258579
 C/A-ratio  =     1.4835282260
  
  Lattice vectors:
  
 A1 = (   0.0000000000, -18.1212369514,   0.0000000000)
 A2 = ( -23.4112945954,   0.0000000000,   0.0000000000)
 A3 = (   0.0000000000,   0.0000000000, -26.8833665073)


Analysis of symmetry for initial positions (statically):
=====================================================================
 Subroutine PRICEL returns:
 Original cell was already a primitive cell.
 

 Routine SETGRP: Setting up the symmetry group for a 
 simple orthorhombic supercell.


 Subroutine GETGRP returns: Found  1 space group operations
 (whereof  1 operations were pure point group operations)
 out of a pool of  8 trial point group operations.


The static configuration has the point symmetry C_1 .


Analysis of symmetry for dynamics (positions and initial velocities):
=====================================================================
 Subroutine PRICEL returns:
 Original cell was already a primitive cell.
 

 Routine SETGRP: Setting up the symmetry group for a 
 simple orthorhombic supercell.


 Subroutine GETGRP returns: Found  1 space group operations
 (whereof  1 operations were pure point group operations)
 out of a pool of  8 trial point group operations.


The dynamic configuration has the point symmetry C_1 .


Analysis of constrained symmetry for selective dynamics:
=====================================================================
 Subroutine PRICEL returns:
 Original cell was already a primitive cell.
 

 Routine SETGRP: Setting up the symmetry group for a 
 simple orthorhombic supercell.


 Subroutine GETGRP returns: Found  1 space group operations
 (whereof  1 operations were pure point group operations)
 out of a pool of  8 trial point group operations.


The constrained configuration has the point symmetry C_1 .


 Subroutine INISYM returns: Found  1 space group operations
 (whereof  1 operations are pure point group operations),
 and found     1 'primitive' translations



 KPOINTS: KPOINTS created by Atomic Simulation Env

Automatic generation of k-mesh.
Space group operators:
 irot       det(A)        alpha          n_x          n_y          n_z        tau_x        tau_y        tau_z
    1     1.000000     0.000000     1.000000     0.000000     0.000000     0.000000     0.000000     0.000000
 
 Subroutine IBZKPT returns following result:
 ===========================================
 
 Found      5 irreducible k-points:
 
 Following reciprocal coordinates:
            Coordinates               Weight
  0.000000  0.000000  0.000000      1.000000
  0.333333  0.000000  0.000000      2.000000
  0.000000  0.333333  0.000000      2.000000
  0.333333  0.333333  0.000000      2.000000
 -0.333333  0.333333  0.000000      2.000000
 
 Following cartesian coordinates:
            Coordinates               Weight
  0.000000  0.000000  0.000000      1.000000
  0.014238  0.000000  0.000000      2.000000
  0.000000  0.018395  0.000000      2.000000
  0.014238  0.018395  0.000000      2.000000
 -0.014238  0.018395  0.000000      2.000000
 


--------------------------------------------------------------------------------------------------------




 Dimension of arrays:
   k-points           NKPTS =      5   k-points in BZ     NKDIM =      5   number of bands    NBANDS=    776
   number of dos      NEDOS =    301   number of ions     NIONS =    279
   non local maximal  LDIM  =      6   non local SUM 2l+1 LMDIM =     18
   total plane-waves  NPLWV = ******
   max r-space proj   IRMAX =   2748   max aug-charges    IRDMAX=   9808
   dimension x,y,z NGX =   128 NGY =  100 NGZ =  150
   dimension x,y,z NGXF=   256 NGYF=  200 NGZF=  300
   support grid    NGXF=   256 NGYF=  200 NGZF=  300
   ions per type =               5  54 154  65   1
   NGX,Y,Z   is equivalent  to a cutoff of   9.09,  9.17,  9.28 a.u.
   NGXF,Y,Z  is equivalent  to a cutoff of  18.18, 18.35, 18.55 a.u.

 SYSTEM =  unknown system                          
 POSCAR =  C  H  O  Si W                           

 Startparameter for this run:
   NWRITE =      2    write-flag & timer
   PREC   = normal    normal or accurate (medium, high low for compatibility)
   ISTART =      0    job   : 0-new  1-cont  2-samecut
   ICHARG =      2    charge: 1-file 2-atom 10-const
   ISPIN  =      1    spin polarized calculation?
   LNONCOLLINEAR =      F non collinear calculations
   LSORBIT =      F    spin-orbit coupling
   INIWAV =      1    electr: 0-lowe 1-rand  2-diag
   LASPH  =      T    aspherical Exc in radial PAW
   METAGGA=      F    non-selfconsistent MetaGGA calc.

 Electronic Relaxation 1
   ENCUT  =  500.0 eV  36.75 Ry    6.06 a.u.  42.68 33.04 49.01*2*pi/ulx,y,z
   ENINI  =  500.0     initial cutoff
   ENAUG  =  644.9 eV  augmentation charge cutoff
   NELM   =     60;   NELMIN=  2; NELMDL=  0     # of ELM steps 
   EDIFF  = 0.1E-03   stopping-criterion for ELM
   LREAL  =      T    real-space projection
   NLSPLINE    = F    spline interpolate recip. space projectors
   LCOMPAT=      F    compatible to vasp.4.4
   GGA_COMPAT  = T    GGA compatible to vasp.4.4-vasp.4.6
   LMAXPAW     = -100 max onsite density
   LMAXMIX     =    2 max onsite mixed and CHGCAR
   VOSKOWN=      0    Vosko Wilk Nusair interpolation
   ROPT   =   -0.00050  -0.00050  -0.00050  -0.00050
   ROPT   =   -0.00050
 Ionic relaxation
   EDIFFG = -.5E-01   stopping-criterion for IOM
   NSW    =    500    number of steps for IOM
   NBLOCK =      1;   KBLOCK =    500    inner block; outer block 
   IBRION =      2    ionic relax: 0-MD 1-quasi-New 2-CG
   NFREE  =      1    steps in history (QN), initial steepest desc. (CG)
   ISIF   =      0    stress and relaxation
   IWAVPR =     11    prediction:  0-non 1-charg 2-wave 3-comb
   ISYM   =      2    0-nonsym 1-usesym 2-fastsym
   LCORR  =      T    Harris-Foulkes like correction to forces

   POTIM  = 0.5000    time-step for ionic-motion
   TEIN   =    0.0    initial temperature
   TEBEG  =    0.0;   TEEND  =   0.0 temperature during run
   SMASS  =  -3.00    Nose mass-parameter (am)
   estimated Nose-frequenzy (Omega)   =  0.10E-29 period in steps =****** mass=  -0.125E-25a.u.
   SCALEE = 1.0000    scale energy and forces
   NPACO  =    256;   APACO  = 16.0  distance and # of slots for P.C.
   PSTRESS=    0.0 pullay stress

  Mass of Ions in am
   POMASS =  12.01  1.00 16.00 28.09183.85
  Ionic Valenz
   ZVAL   =   4.00  1.00  6.00  4.00  6.00
  Atomic Wigner-Seitz radii
   RWIGS  =  -1.00 -1.00 -1.00 -1.00 -1.00
  virtual crystal weights 
   VCA    =   1.00  1.00  1.00  1.00  1.00
   NELECT =    1264.0000    total number of electrons
   NUPDOWN=      -1.0000    fix difference up-down

 DOS related values:
   EMIN   =  10.00;   EMAX   =-10.00  energy-range for DOS
   EFERMI =   0.00
   ISMEAR =     0;   SIGMA  =   0.20  broadening in eV -4-tet -1-fermi 0-gaus

 Electronic relaxation 2 (details)
   IALGO  =     68    algorithm
   LDIAG  =      T    sub-space diagonalisation (order eigenvalues)
   LSUBROT=      F    optimize rotation matrix (better conditioning)
   TURBO    =      0    0=normal 1=particle mesh
   IRESTART =      0    0=no restart 2=restart with 2 vectors
   NREBOOT  =      0    no. of reboots
   NMIN     =      0    reboot dimension
   EREF     =   0.00    reference energy to select bands
   IMIX   =      4    mixing-type and parameters
     AMIX     =   0.40;   BMIX     =  1.00
     AMIX_MAG =   1.60;   BMIX_MAG =  1.00
     AMIN     =   0.10
     WC   =   100.;   INIMIX=   1;  MIXPRE=   1;  MAXMIX= -45

 Intra band minimization:
   WEIMIN = 0.0010     energy-eigenvalue tresh-hold
   EBREAK =  0.32E-07  absolut break condition
   DEPER  =   0.30     relativ break condition  

   TIME   =   0.40     timestep for ELM

  volume/ion in A,a.u.               =      40.88       275.86
  Fermi-wavevector in a.u.,A,eV,Ry     =   0.786366  1.486017  8.413461  0.618372
  Thomas-Fermi vector in A             =   1.890890

 Write flags
   LWAVE        =      F    write WAVECAR
   LDOWNSAMPLE  =      F    k-point downsampling of WAVECAR
   LCHARG       =      F    write CHGCAR
   LVTOT        =      F    write LOCPOT, total local potential
   LVHAR        =      F    write LOCPOT, Hartree potential only
   LELF         =      F    write electronic localiz. function (ELF)
   LORBIT       =      0    0 simple, 1 ext, 2 COOP (PROOUT), +10 PAW based schemes


 Dipole corrections
   LMONO  =      F    monopole corrections only (constant potential shift)
   LDIPOL =      T    correct potential (dipole corrections)
   IDIPOL =      3    1-x, 2-y, 3-z, 4-all directions 
   EPSILON=  1.0000000 bulk dielectric constant

 Exchange correlation treatment:
   GGA     =    RP    GGA type
   LEXCH   =     9    internal setting for exchange type
   VOSKOWN=      0    Vosko Wilk Nusair interpolation
   LHFCALC =     F    Hartree Fock is set to
   LHFONE  =     F    Hartree Fock one center treatment
   AEXX    =    0.0000 exact exchange contribution

 Linear response parameters
   LEPSILON=     F    determine dielectric tensor
   LRPA    =     F    only Hartree local field effects (RPA)
   LNABLA  =     F    use nabla operator in PAW spheres
   LVEL    =     F    velocity operator in full k-point grid
   LINTERFAST=   F  fast interpolation
   KINTER  =     0    interpolate to denser k-point grid
   CSHIFT  =0.1000    complex shift for real part using Kramers Kronig
   OMEGAMAX=  -1.0    maximum frequency
   DEG_THRESHOLD= 0.2000000E-02 threshold for treating states as degnerate
   RTIME   =   -0.100 relaxation time in fs
  (WPLASMAI=    0.000 imaginary part of plasma frequency in eV, 0.658/RTIME)
   DFIELD  = 0.0000000 0.0000000 0.0000000 field for delta impulse in time

 Orbital magnetization related:
   ORBITALMAG=     F  switch on orbital magnetization
   LCHIMAG   =     F  perturbation theory with respect to B field
   DQ        =  0.001000  dq finite difference perturbation B field
   LLRAUG    =     F  two centre corrections for induced B field



--------------------------------------------------------------------------------------------------------


 conjugate gradient relaxation of ions
   using selective dynamics as specified on POSCAR
 charge density and potential will be updated during run
 non-spin polarized calculation
 RMM-DIIS sequential band-by-band and
  variant of blocked Davidson during initial phase
 perform sub-space diagonalisation
    before iterative eigenvector-optimisation
 modified Broyden-mixing scheme, WC =      100.0
 initial mixing is a Kerker type mixing with AMIX =  0.4000 and BMIX =      1.0000
 Hartree-type preconditioning will be used
 using additional bands          144
 real space projection scheme for non local part
 use partial core corrections
 calculate Harris-corrections to forces   (improved forces if not selfconsistent)
 use gradient corrections 
 use of overlap-Matrix (Vanderbilt PP)
 Gauss-broadening in eV      SIGMA  =   0.20


--------------------------------------------------------------------------------------------------------


  energy-cutoff  :      500.00
  volume of cell :    11405.04
      direct lattice vectors                 reciprocal lattice vectors
    23.411294595  0.000000000  0.000000000     0.042714426  0.000000000  0.000000000
     0.000000000 18.121236951  0.000000000     0.000000000  0.055183871  0.000000000
     0.000000000  0.000000000 26.883366507     0.000000000  0.000000000  0.037197722

  length of vectors
    23.411294595 18.121236951 26.883366507     0.042714426  0.055183871  0.037197722



 k-points in units of 2pi/SCALE and weight: KPOINTS created by Atomic Simulation Env
   0.00000000  0.00000000  0.00000000       0.111
   0.01423814  0.00000000  0.00000000       0.222
   0.00000000  0.01839462  0.00000000       0.222
   0.01423814  0.01839462  0.00000000       0.222
  -0.01423814  0.01839462  0.00000000       0.222

 k-points in reciprocal lattice and weights: KPOINTS created by Atomic Simulation Env
   0.00000000  0.00000000  0.00000000       0.111
   0.33333333  0.00000000  0.00000000       0.222
   0.00000000  0.33333333  0.00000000       0.222
   0.33333333  0.33333333  0.00000000       0.222
  -0.33333333  0.33333333  0.00000000       0.222

 position of ions in fractional coordinates (direct lattice) 
   0.62388676  0.55016974  0.75691398
   0.58314720  0.54960895  0.79204261
   0.39433621  0.44784477  0.67938356
   0.54335046  0.61274436  0.80318295
   0.36190399  0.39622160  0.71325857
   0.76203985  0.10337287  0.65155646
   0.92642768  0.27866896  0.35633493
   0.79333970  0.20727890  0.37345652
   0.97453911  0.94360860  0.32530279
   0.62573266  0.96347285  0.37523120
   0.82053840  0.99500666  0.36899263
   0.74999307  0.14117876  0.45803819
   0.91547729  0.24943955  0.50909302
   0.58349286  0.30426355  0.30592717
   0.89061663  0.33465120  0.61530699
   0.58698353  0.35847000  0.61523115
   0.59390776  0.87084344  0.57791887
   0.03194451  0.33866366  0.65213438
   0.93527051  0.41951423  0.45410146
   0.74613838  0.53031199  0.42248819
   0.80038785  0.38376972  0.63590542
   0.59110202  0.56868283  0.37803474
   0.71843379  0.64593279  0.38346059
   0.84115291  0.54242660  0.41959617
   0.00476455  0.60379815  0.35777830
   0.82835870  0.71235667  0.46794226
   0.87115190  0.59644270  0.72372735
   0.51999031  0.98556476  0.42170307
   0.22309457  0.98015484  0.39320502
   0.21637369  0.23785146  0.31923033
   0.15750105  0.32980623  0.27898292
   0.34154688  0.15558571  0.33077276
   0.22271586  0.04575893  0.32273843
   0.51138471  0.82585066  0.54686543
   0.38974721  0.24795233  0.64968677
   0.24406533  0.09377141  0.59861547
   0.31538097  0.48713646  0.44243467
   0.40895618  0.43873486  0.40569060
   0.39849950  0.79311361  0.38878680
   0.24420236  0.65543008  0.29432688
   0.31174138  0.41847571  0.36925764
   0.40547429  0.58427965  0.33881989
   0.13935762  0.48797365  0.35192946
   0.59326935  0.69798713  0.35239799
   0.46900683  0.86142747  0.44382838
   0.11785515  0.32272890  0.60951268
   0.07051204  0.66600759  0.64535929
   0.23002715  0.38972769  0.68290717
   0.24751757  0.81547400  0.66994064
   0.65120582  0.50221864  0.75044245
   0.63124288  0.59836207  0.73335793
   0.57702681  0.49973836  0.81446280
   0.37037047  0.46761231  0.64650924
   0.54806342  0.63133611  0.84208245
   0.55126215  0.66012243  0.77850950
   0.49841374  0.59551751  0.79871797
   0.34364251  0.34941947  0.69236285
   0.38916560  0.37537111  0.74339277
   0.32517312  0.42541481  0.72994636
   0.36894173  0.64835510  0.43900002
   0.34681565  0.50403387  0.42038813
   0.86094602  0.56491258  0.69603717
   0.34886197  0.95853790  0.53071570
   0.03337115  0.93211481  0.52859280
   0.63635548  0.07886855  0.48937667
   0.06864615  0.05226542  0.39511073
   0.45189954  0.12956232  0.42059728
   0.80588415  0.21365018  0.48316661
   0.97319180  0.18133735  0.59863191
   0.27476529  0.29917287  0.44851223
   0.55635417  0.77509129  0.44175101
   0.39159662  0.97104365  0.61991276
   0.17751724  0.34996845  0.40527312
   0.86713359  0.68410857  0.63719287
   0.86569601  0.96717693  0.46703846
   0.30104714  0.76093683  0.45792526
   0.42161095  0.26125222  0.37959630
   0.81127198  0.46518450  0.52018141
   0.98376816  0.07238523  0.52102012
   0.51586370  0.45517595  0.62910688
   0.03453641  0.91994776  0.42940526
   0.96303654  0.30319531  0.35125762
   0.06962669  0.33610577  0.37637178
   0.20829566  0.72864429  0.39536010
   0.03890126  0.41910192  0.49910875
   0.23726796  0.28670710  0.58775231
   0.39688883  0.19580997  0.64479597
   0.45517130  0.55763222  0.58827200
   0.91036532  0.74917885  0.55747625
   0.86912727  0.10804334  0.44227833
   0.57257679  0.66733185  0.37613173
   0.14242656  0.15912550  0.37597224
   0.35061435  0.76512688  0.60655754
   0.91099605  0.84504757  0.48317962
   0.06133801  0.53687171  0.44225348
   0.70833903  0.55516655  0.41995768
   0.07548726  0.81680680  0.48299416
   0.70046477  0.82755571  0.43263529
   0.73026941  0.04917387  0.54296177
   0.91737451  0.30058557  0.63102521
   0.73538566  0.85318553  0.61284446
   0.62512195  0.52739400  0.48637871
   0.55657330  0.62970304  0.46724942
   0.42621889  0.24712472  0.55588161
   0.97829009  0.72824363  0.47679564
   0.65475542  0.59426155  0.63318629
   0.39713016  0.74630131  0.51524374
   0.60269007  0.51766545  0.38567099
   0.72059656  0.63054196  0.55691392
   0.14192397  0.36591472  0.61391222
   0.06618571  0.54854013  0.54188363
   0.81890622  0.88436146  0.53656146
   0.82821553  0.35538514  0.45190334
   0.52797006  0.29733964  0.53115129
   0.73759134  0.49890806  0.59593760
   0.55743394  0.17243111  0.39490854
   0.80596408  0.25641257  0.38329286
   0.23744622  0.95325075  0.50791956
   0.69324860  0.77586073  0.54158525
   0.92378575  0.94976559  0.55295126
   0.52573722  0.31778112  0.39855594
   0.46814112  0.98983034  0.54633024
   0.83774676  0.09484314  0.53973904
   0.53790325  0.11641749  0.48623709
   0.35019344  0.18660873  0.43963639
   0.01176032  0.96241390  0.33524376
   0.45779050  0.59765307  0.68021889
   0.65496522  0.92539750  0.37922825
   0.07629334  0.68602626  0.43588102
   0.45416870  0.40410049  0.55260340
   0.71921944  0.70042085  0.37958300
   0.45051283  0.70247978  0.59995190
   0.75255106  0.70932458  0.47629548
   0.77891920  0.12098116  0.62084065
   0.99327462  0.30801347  0.44840298
   0.53402058  0.51071212  0.53288189
   0.81677759  0.49906173  0.42344221
   0.23599143  0.14571172  0.60539914
   0.20353331  0.83070132  0.47053363
   0.23996861  0.55917267  0.52261775
   0.06103726  0.62494745  0.62379018
   0.04607407  0.60234669  0.35417863
   0.80096062  0.97873032  0.60557569
   0.53799091  0.02769749  0.40450275
   0.60472396  0.31232953  0.60510704
   0.86154611  0.00408085  0.36920633
   0.09491131  0.14902284  0.46708233
   0.17147726  0.20334283  0.53044480
   0.64098865  0.70443872  0.45481558
   0.43678778  0.40976848  0.38641325
   0.57399159  0.05824525  0.57107421
   0.15143775  0.59340802  0.38895836
   0.26773979  0.60233753  0.39230630
   0.44025846  0.32219818  0.47032443
   0.23800967  0.15851113  0.42990119
   0.07282347  0.14993062  0.56252832
   0.84546586  0.54442027  0.59950858
   0.62117943  0.27993988  0.41090545
   0.60266699  0.89152667  0.46722346
   0.03138539  0.19528983  0.38899188
   0.60814348  0.19505758  0.54753364
   0.13279973  0.93835464  0.47948708
   0.08020457  0.28025493  0.51168570
   0.37241443  0.10425523  0.57015231
   0.06656148  0.69695511  0.53575862
   0.66648838  0.41538488  0.43001156
   0.79995284  0.72942158  0.56397340
   0.70383856  0.95720843  0.47018456
   0.59910155  0.63560879  0.55301999
   0.72284030  0.29368465  0.45166811
   0.97743538  0.31431552  0.54709145
   0.15822056  0.62979920  0.57059800
   0.63333384  0.32678308  0.50780070
   0.82076836  0.39641118  0.60564949
   0.95857820  0.02724304  0.41695300
   0.28210448  0.19577964  0.51875291
   0.24925755  0.44303289  0.46105570
   0.27290545  0.84950224  0.56821828
   0.20366815  0.68557317  0.48688872
   0.14712345  0.47606988  0.49254493
   0.22520952  0.42376153  0.55676606
   0.91141698  0.45274460  0.47371881
   0.86978818  0.70456011  0.46415352
   0.73812021  0.09283462  0.44522965
   0.22218344  0.92978119  0.40794682
   0.24484483  0.40226495  0.65034275
   0.63096176  0.88345175  0.59313493
   0.41022327  0.78906239  0.42343739
   0.91777135  0.19603829  0.50824515
   0.13254706  0.44353611  0.33227266
   0.15514768  0.30352326  0.31056042
   0.37300515  0.13090704  0.34795342
   0.03339145  0.29273380  0.63355800
   0.57268926  0.25686819  0.32009968
   0.24532349  0.77109606  0.64985746
   0.20737430  0.64840505  0.31036906
   0.27537441  0.39219130  0.36737583
   0.36535081  0.59758663  0.34222079
   0.22638085  0.05618082  0.35811888
   0.24120333  0.19607823  0.32934297
   0.50127293  0.89230162  0.45484168
   0.55026665  0.82772912  0.53431094
   0.54599447  0.64706591  0.63453818
   0.47848087  0.12174809  0.59615826
   0.26228251  0.69452053  0.56865670
   0.44317536  0.84620168  0.58174008
   0.76607288  0.61766396  0.64928792
   0.84511886  0.83165613  0.62299388
   0.64062530  0.73994719  0.62118149
   0.00795287  0.03325220  0.60293616
   0.28432732  0.00149425  0.59392607
   0.50324072  0.97150733  0.62875082
   0.48780076  0.45308899  0.74200474
   0.08322528  0.60642030  0.40641308
   0.40940295  0.76469698  0.57471641
   0.84176382  0.44145312  0.46783897
   0.01708949  0.99048204  0.39361135
   0.01470021  0.28419027  0.39108141
   0.00924421  0.11480254  0.57237310
   0.61035941  0.65802844  0.61111481
   0.21399478  0.47635919  0.50955163
   0.91506213  0.75556094  0.49625454
   0.52057854  0.11045563  0.42598659
   0.41867803  0.16946307  0.58963241
   0.08345253  0.13917208  0.40698087
   0.70189793  0.04484625  0.48732303
   0.66505935  0.89803746  0.43747644
   0.65009874  0.50402706  0.43015089
   0.19846065  0.91248223  0.46399069
   0.21067117  0.36708328  0.60235336
   0.67409530  0.81374278  0.59459553
   0.21655429  0.64184035  0.53860520
   0.36878912  0.73512773  0.45920930
   0.79776920  0.88847858  0.59566781
   0.87974914  0.91222379  0.51199666
   0.57727648  0.57580127  0.51232262
   0.58983947  0.11522588  0.52528869
   0.85812234  0.15211323  0.49517595
   0.83590273  0.60379137  0.64566938
   0.13373852  0.36031890  0.35687228
   0.79065529  0.27993925  0.44187265
   0.39917610  0.17749484  0.39600320
   0.85648093  0.75008022  0.59649344
   0.28301531  0.93457983  0.54959254
   0.02307473  0.33044751  0.50224551
   0.57455938  0.69549008  0.43556436
   0.23024095  0.75260050  0.45196954
   0.59389979  0.28350186  0.54822827
   0.97445110  0.27212169  0.60234832
   0.88890636  0.02540900  0.42420019
   0.10465458  0.19530361  0.51775879
   0.04814566  0.73303709  0.48263019
   0.23167036  0.20619177  0.56101691
   0.56140781  0.25778527  0.38122611
   0.47757700  0.62805466  0.62497720
   0.28145997  0.77053772  0.59774929
   0.20850083  0.64339984  0.37179454
   0.74086988  0.71047177  0.53592088
   0.98655291  0.99034848  0.55035113
   0.70310456  0.73681815  0.43426040
   0.78798283  0.05950556  0.57680694
   0.45631390  0.32845159  0.40928789
   0.44962530  0.93526808  0.59462540
   0.50842895  0.04052468  0.58612516
   0.24424715  0.37040632  0.42094710
   0.65852534  0.33000211  0.45034791
   0.46090285  0.31757133  0.52875349
   0.33729937  0.58994254  0.39908301
   0.80388582  0.47641058  0.57989612
   0.06920979  0.89885916  0.48050551
   0.21190758  0.14445432  0.37359659
   0.07823286  0.49398499  0.49468762
   0.55757019  0.85234010  0.47473025
   0.71902640  0.58455664  0.60966549
   0.28664212  0.21010174  0.45911077
   0.08797740  0.62542160  0.56771287
   0.35336079  0.01848376  0.57896883
   0.48885114  0.47830691  0.57383923
   0.46855203  0.49011188  0.68583427

 position of ions in cartesian coordinates  (Angst):
  14.60599678  9.96975625 20.34839581
  13.65223082  9.95959401 21.29277188
   9.23192121  8.11550118 18.26411731
  12.72053769 11.10368566 21.59226168
   8.47264097  7.18002542 19.17479160
  17.84033951  1.87324420 17.51603103
  21.68887124  5.04982630  9.57948250
  18.57310935  3.75615001 10.03976840
  22.81522226 17.09935504  8.74523415
  14.64921175 17.45931981 10.08747787
  19.20986618 18.03075152  9.91976410
  17.55830880  2.55833368 12.31360861
  21.43250857  4.52015311 13.68613430
  13.66032332  5.51363181  8.22435231
  20.85048825  6.06429367 16.54152341
  13.74204440  6.49591987 16.53948436
  13.90414957 15.78076028 15.53640488
   0.74786223  6.13700438 17.53156756
  21.89589338  7.60211669 12.20777585
  17.46806539  9.60990927 11.35790489
  18.73811578  6.95438203 17.09527852
  13.83846346 10.30523625 10.16284657
  16.81946503 11.70510106 10.30871170
  19.69247867  9.82944087 11.28015755
   0.11154425 10.94156933  9.61828518
  19.39294954 12.90878407 12.57986315
  20.39479385 10.80827941 19.45622772
  12.17364643 17.85965257 11.33679820
   5.22293275 17.76161801 10.57067472
   5.06558822  4.31016263  8.58198589
   3.68730349  5.97649684  7.50000000
   7.99605454  2.81940543  8.89228530
   5.21406665  0.82920834  8.67629559
  11.97217809 14.96543542 14.70158389
   9.12448679  4.49320298 17.46576764
   5.71388526  1.69925397 16.09279896
   7.38347683  8.82751530 11.89413327
   9.57419369  7.95041833 10.90632902
   9.32938926 14.37219961 10.45189795
   5.71709332 11.87720376  7.91249741
   7.29826932  7.58329756  9.92688859
   9.49267817 10.58787004  9.10861924
   3.26254231  8.84268607  9.46104865
  13.88920341 12.64839014  9.47364424
  10.98005707 15.61013128 11.93160111
   2.75914157  5.84824694 16.38575282
   1.65077811 12.06888134 17.34943028
   5.38523333  7.06234774 18.35884381
   5.79470678 14.77739765 18.01025988
  15.24557130  9.10082289 20.17441935
  14.77821297 10.84306077 19.71512993
  13.50894466  9.05587724 21.89550185
   8.67085207  8.47371345 17.38034477
  12.83087428 11.44059124 22.63801122
  12.90576070 11.96223488 20.92895617
  11.66851095 10.79151384 21.47222801
   8.04511595  6.33191293 18.61304432
   9.11087043  6.80218889 19.98490026
   7.61272380  7.70904250 19.62341549
   8.63740362 11.74899635 11.80179838
   8.11940335  9.13371715 11.30144811
  20.15586087 10.23691467 18.71182243
   8.16731041 17.36989233 14.26742472
   0.78126192 16.89107330 14.21035406
  14.89790566  1.42919560 13.15609244
   1.60709516  0.94711408 10.62190669
  10.57955331  2.34782959 11.30707087
  18.86679123  3.87160553 12.98914499
  22.78367986  3.28605716 16.09324104
   6.43261122  5.42138248 12.05751853
  13.02497128 14.04561294 11.87575437
   9.16778384 17.59651198 16.66534182
   4.15590840  6.34186119 10.89510594
  20.30071998 12.39689348 17.12988947
  20.26706432 17.52644236 12.55556607
   7.04790320 13.78911669 12.31057251
   9.87045805  4.73421333 10.20482654
  18.99292740  8.42971848 13.98422754
  23.03128611  1.31170994 14.00677492
  12.07703696  8.24835129 16.91251073
   0.80854198 16.67059137 11.54385891
  22.54593219  5.49427402  9.44298747
   1.63005096  6.09065222 10.11814055
   4.87647100 13.20393591 10.62861051
   0.91072893  7.59464512 13.41772355
   5.55475012  5.19548728 15.80076088
   9.29168135  3.54831891 17.33428634
  10.65614929 10.10498551 15.81473180
  21.31283064 13.57604746 14.98683835
  20.34739459  1.95787901 11.88993046
  13.40476402 12.09287863 10.11168720
   3.33439013  2.88355087 10.10739962
   8.20833592 13.86504557 16.30630859
  21.32759690 15.31330727 12.98949491
   1.43600223  9.72877939 11.88926245
  16.58313365 10.06030463 11.28987623
   1.76725442 14.80154965 12.98450890
  16.39878711 14.99633320 11.63069310
  17.09655218  0.89109141 14.59664031
  21.47692486  5.44698231 16.96408191
  17.21633034 15.46077716 16.47532227
  14.63491423  9.55703168 13.07549710
  13.03010146 11.41099800 12.56123752
   9.97833607  4.47820554 14.94396906
  22.90303759 13.19667544 12.81787194
  15.32867211 10.76875443 17.02217914
   9.29733111 13.52390281 13.85148624
  14.10975474  9.38073831 10.36813464
  16.87009828 11.42620035 14.97172105
   3.32262399  6.63082738 16.50402725
   1.54949309  9.94022562 14.56765634
  19.17165477 16.02572362 14.42457832
  19.38959778  6.44001838 12.14868300
  12.36046272  5.38816202 14.27913470
  17.26796815  9.04083120 16.02080891
  13.05025009  3.12466491 10.61647095
  18.86866258  4.64651294 10.30420244
   5.55892333 17.27408272 13.65458756
  16.22984726 14.05955608 14.55963467
  21.62702036 17.21092735 14.86519141
  12.30818899  5.75858696 10.71452528
  10.95978975 17.93695007 14.68719619
  19.61273628  1.71867507 14.51000236
  12.59301152  2.10962891 13.07168996
   8.19848185  3.38158105 11.81890631
   0.27532438 17.44013032  9.01248080
  10.71746837 10.83021284 18.28657380
  15.33358375 16.76934745 10.19493214
   1.78612593 12.43164436 11.71794928
  10.63267734  7.32280067 14.85583968
  16.83785811 12.69249221 10.20446890
  10.54708857 12.72980264 16.12872682
  17.61819454 12.85383870 12.80442605
  18.23550687  2.19232830 16.69028684
  23.25384464  5.58158513 12.05458163
  12.50211301  9.25473538 14.32565915
  19.12182067  9.04361594 11.38355200
   5.52486495  2.64047663 16.27516703
   4.76497818 15.05333538 12.64952801
   5.61797582 10.13290038 14.04972451
   1.42896119 11.32482074 16.76958007
   1.07865368 10.91526713  9.52151395
  18.75152514 17.73580406 16.27991332
  12.59506368  0.50191281 10.87439573
  14.15737089  5.65979733 16.26731440
  20.16990973  0.07395004  9.92550906
   2.22199659  2.70047811 12.55674536
   4.01450468  3.68482364 14.26014199
  15.00637423 12.76530096 12.22697399
  10.22576747  7.42551173 10.38808912
  13.43788616  1.05547595 15.35239741
   3.54535369 10.75328740 10.45651017
   6.26813510 10.91510113 10.54651395
  10.30702050  5.83862960 12.64390410
   5.57211440  2.87241773 11.55719116
   1.70489180  2.71692836 15.12265504
  19.79345031  9.86556877 16.11680879
  14.54261459  5.07285683 11.04652184
  14.10921452 16.15556596 12.56053950
   0.73477264  3.53889327 10.45741115
  14.23742626  3.53468468 14.71954741
   3.10901351 17.00414686 12.89022683
   1.87769271  5.07856595 13.75583432
   8.71870404  1.88923374 15.32761338
   1.55829043 12.62968876 14.40299521
  15.60335581  7.52728779 11.56015827
  18.72793150 13.21802127 15.16150359
  16.47777184 17.34580083 12.64014391
  14.02574294 11.51801749 14.86703902
  16.92262720  5.32192920 12.14235921
  22.88302774  5.69578606 14.70766001
   3.70414808 11.41274059 15.33959528
  14.82716522  5.92171361 13.65139239
  19.21524990  7.18346091 16.28189734
  22.44155659  0.49367766 11.20910044
   6.60443116  3.54776918 13.94582449
   5.83544193  8.02830396 12.39472924
   6.38906994 15.39403133 15.27562026
   4.76813504 12.42343385 13.08920785
   3.44435051  8.62697504 13.24126574
   5.27244639  7.67908305 14.96774601
  21.33745138  8.20429214 12.73515651
  20.36286723 12.76750071 12.47800922
  17.28034963  1.68227812 11.96927179
   5.20160188 16.84878525 10.96698378
   5.73213443  7.28953854 17.48340240
  14.77163157 16.00923841 15.94546375
   9.60385771 14.29878657 11.38342242
  21.48621551  3.55245637 13.66334053
   3.10309823  8.03742301  8.93260776
   3.63220806  5.50021683  8.34890949
   8.73253334  2.37219755  9.35415932
   0.78173716  5.30469857 17.03217190
  13.40739699  4.65476936  8.60535697
   5.74334040 13.97321442 17.47035619
   4.85490080 11.74990154  8.34376522
   6.44687148  7.10699146  9.87629901
   8.55333550 10.82900896  9.20004704
   5.29986877  1.01806602  9.62744117
   5.64688233  3.55318002  8.85384768
  11.73544815 16.16960912 12.22767567
  12.88245468 14.99947548 14.36407686
  12.78243742 11.72563463 17.05852258
  11.20185651  2.20622595 16.02674091
   6.14037319 12.58557112 15.28740647
  10.37530890 15.33422119 15.63913172
  17.93475786 11.19283501 17.45504525
  19.78532662 15.07063781 16.74817276
  14.99786753 13.40875844 16.69944978
   0.18618695  0.60257102 16.20895378
   6.65647070  0.02707770 15.96673220
  11.78151686 17.60491444 16.90293884
  11.42004720  8.21053293 19.94758548
   1.94841153 10.98908596 10.92575188
   9.58465306 13.85725525 15.45031196
  19.70678074  7.99967650 12.57708649
   0.40008717 17.94875972 10.58159830
   0.34415087  5.14987929 10.51358498
   0.21641900  2.08036408 15.38731573
  14.28930402 11.92428922 16.42882329
   5.00989483  8.63221767 13.69846324
  21.42278905 13.69169878 13.34099278
  12.18741762  2.00159257 11.45195358
   9.80179482  3.07088047 15.85130430
   1.95373172  2.52197018 10.94101594
  16.43233932  0.81266960 13.10088356
  15.56990047 16.27354966 11.76083937
  15.21965321  9.13359373 11.56390395
   4.64622068 16.53530673 12.47363180
   4.93208480  6.65200305 16.19328623
  15.78144373 14.74602573 15.98472948
   5.06981624 11.63094107 14.47952098
   8.63383069 13.32142384 12.34509184
  18.67680972 16.10033088 16.01355598
  20.59606626 16.53062342 13.76419382
  13.51478974 10.43423119 13.77295666
  13.80890555  2.08803539 14.12152825
  20.08975493  2.75647992 13.31199648
  19.56956516 10.94144657 17.35776649
   3.13099191  6.52942423  9.59392828
  18.51026388  5.07284540 11.87902451
   9.34522920  3.21642612 10.64589911
  20.05132742 13.59238132 16.03575166
   6.62575485 16.93574260 14.77489777
   0.54020935  5.98811771 13.50205012
  13.45117902 12.60314055 11.70943634
   5.39023881 13.63805192 12.15046292
  13.90396284  5.13740431 14.73822157
  22.81316183  4.93118170 16.19315057
  20.81044864  0.46044249 11.40392910
   2.45009911  3.53914296 13.91909920
   1.12715225 13.28353886 12.97472440
   5.42370301  3.73644986 15.08202319
  13.14328356  4.67138795 10.24864117
  11.18069591 11.38112723 16.80149111
   6.58934216 13.96309662 16.06951318
   4.88127424 11.65920103  9.99508876
  17.34472297 12.87462737 14.40735742
  23.09648088 17.94633939 14.79529116
  16.46058793 13.35205634 11.67438144
  18.44769818  1.07831438 15.50651244
  10.68289909  5.95194918 11.00303640
  10.52631047 16.94821452 15.98553248
  11.90298003  0.73435735 15.75701757
   5.71814202  6.71222076 11.31647527
  15.41693082  5.98004644 12.10686792
  10.79033229  5.75478524 14.21467373
   7.89661487 10.69048858 10.72869482
  18.82000766  8.63314907 15.58956005
   1.62029077 16.28843974 12.91760565
   4.96103075  2.61769098 10.04353415
   1.83153245  8.95161914 13.29886860
  13.05343995 15.44545689 12.76234739
  16.83333899 10.59288932 16.38986077
   6.71066321  3.80730338 12.34244318
   2.05966472 11.33341292 15.26203305
   8.27263354  0.33494857 15.56463126
  11.44463814  8.66751294 15.42673043
  10.96940964  8.88143343 18.43753393



--------------------------------------------------------------------------------------------------------


 k-point  1 :   0.0000 0.0000 0.0000  plane waves:  289505
 k-point  2 :   0.3333 0.0000 0.0000  plane waves:  289422
 k-point  3 :   0.0000 0.3333 0.0000  plane waves:  289550
 k-point  4 :   0.3333 0.3333 0.0000  plane waves:  289551
 k-point  5 :  -0.3333 0.3333 0.0000  plane waves:  289551

 maximum and minimum number of plane-waves per node :     72451    72309

 maximum number of plane-waves:    289551
 maximum index in each direction: 
   IXMAX=   43   IYMAX=   33   IZMAX=   49
   IXMIN=  -43   IYMIN=  -33   IZMIN=  -49


 real space projection operators:
  total allocation   :      13904.88 KBytes
  max/ min on nodes  :       3485.23       3468.06


 parallel 3D FFT for wavefunctions:
    minimum data exchange during FFTs selected (reduces bandwidth)
 parallel 3D FFT for charge:
    minimum data exchange during FFTs selected (reduces bandwidth)


 total amount of memory used by VASP MPI-rank0   703308. kBytes
=======================================================================

   base      :      30000. kBytes
   nonlr-proj:      17019. kBytes
   fftplans  :      30982. kBytes
   grid      :      57864. kBytes
   one-center:       1088. kBytes
   wavefun   :     566355. kBytes

     INWAV:  cpu time    0.0000: real time    0.0000
 Broyden mixing: mesh for mixing (old mesh)
   NGX = 85   NGY = 67   NGZ = 99
  (NGX  =256   NGY  =200   NGZ  =300)
  gives a total of 563805 points

 initial charge density was supplied:
 charge density of overlapping atoms calculated
 number of electron    1264.0000000 magnetization 
 keeping initial charge density in first step


--------------------------------------------------------------------------------------------------------


 Maximum index for non-local projection operator          638
 Maximum index for augmentation-charges          378 (set IRDMAX)


--------------------------------------------------------------------------------------------------------


 First call to EWALD:  gamma=   0.079
 Maximum number of real-space cells 3x 3x 2
 Maximum number of reciprocal cells 3x 2x 3

    FEWALD:  cpu time    0.0285: real time    0.0286


--------------------------------------- Iteration      1(   1)  ---------------------------------------


    POTLOK:  cpu time    0.2806: real time    0.2864
    SETDIJ:  cpu time    0.5883: real time    0.5903
     EDDAV:  cpu time   82.2607: real time   82.6246
       DOS:  cpu time    0.0050: real time    0.0050
    --------------------------------------------
      LOOP:  cpu time   83.1346: real time   83.5062

 eigenvalue-minimisations  :  8688
 total energy-change (2. order) : 0.1303793E+05  (-0.5019128E+05)
 number of electron    1264.0000000 magnetization 
 augmentation part     1264.0000000 magnetization 

 DIPCOR: dipole corrections for dipol
 direction  3 min pos    77,
 dipolmoment           0.000000      0.000000      6.475728 electrons x Angstroem
 Tr[quadrupol]    -95844.892069

 energy correction for charged system         0.000000 eV
 dipol+quadrupol energy correction           -0.340953 eV
 added-field ion interaction        888.150595 eV  (added to PSCEN)


 Free energy of the ion-electron system (eV)
  ---------------------------------------------------
  alpha Z        PSCENC =      1383.12645016
  Ewald energy   TEWEN  =    309162.47617110
  -Hartree energ DENC   =   -371531.53820674
  -exchange      EXHF   =         0.00000000
  -V(xc)+E(xc)   XCENC  =      3794.95296308
  PAW double counting   =     60068.29421653   -59086.67348277
  entropy T*S    EENTRO =        -1.68757625
  eigenvalues    EBANDS =     -5630.60190419
  atomic energy  EATOM  =     74879.57743707
  Solvation  Ediel_sol  =         0.00000000
  ---------------------------------------------------
  free energy    TOTEN  =     13037.92606799 eV

  energy without entropy =    13039.61364424  energy(sigma->0) =    13038.76985611


--------------------------------------------------------------------------------------------------------




--------------------------------------- Iteration      1(   2)  ---------------------------------------


     EDDAV:  cpu time   98.1699: real time   98.6045
       DOS:  cpu time    0.0012: real time    0.0012
    --------------------------------------------
      LOOP:  cpu time   98.1711: real time   98.6057

 eigenvalue-minimisations  : 10768
 total energy-change (2. order) :-0.1245230E+05  (-0.1206061E+05)
 number of electron    1264.0000000 magnetization 
 augmentation part     1264.0000000 magnetization 

 DIPCOR: dipole corrections for dipol
 direction  3 min pos    77,
 dipolmoment           0.000000      0.000000      6.475728 electrons x Angstroem
 Tr[quadrupol]    -95844.892069

 energy correction for charged system         0.000000 eV
 dipol+quadrupol energy correction           -0.340953 eV
 added-field ion interaction        888.150595 eV  (added to PSCEN)


 Free energy of the ion-electron system (eV)
  ---------------------------------------------------
  alpha Z        PSCENC =      1383.12645016
  Ewald energy   TEWEN  =    309162.47617110
  -Hartree energ DENC   =   -371531.53820674
  -exchange      EXHF   =         0.00000000
  -V(xc)+E(xc)   XCENC  =      3794.95296308
  PAW double counting   =     60068.29421653   -59086.67348277
  entropy T*S    EENTRO =        -0.00000000
  eigenvalues    EBANDS =    -18084.58813907
  atomic energy  EATOM  =     74879.57743707
  Solvation  Ediel_sol  =         0.00000000
  ---------------------------------------------------
  free energy    TOTEN  =       585.62740936 eV

  energy without entropy =      585.62740936  energy(sigma->0) =      585.62740936


--------------------------------------------------------------------------------------------------------




--------------------------------------- Iteration      1(   3)  ---------------------------------------


     EDDAV:  cpu time   85.1422: real time   85.5484
       DOS:  cpu time    0.0013: real time    0.0013
    --------------------------------------------
      LOOP:  cpu time   85.1435: real time   85.5497

 eigenvalue-minimisations  :  9032
 total energy-change (2. order) :-0.2619039E+04  (-0.2608127E+04)
 number of electron    1264.0000000 magnetization 
 augmentation part     1264.0000000 magnetization 

 DIPCOR: dipole corrections for dipol
 direction  3 min pos    77,
 dipolmoment           0.000000      0.000000      6.475728 electrons x Angstroem
 Tr[quadrupol]    -95844.892069

 energy correction for charged system         0.000000 eV
 dipol+quadrupol energy correction           -0.340953 eV
 added-field ion interaction        888.150595 eV  (added to PSCEN)


 Free energy of the ion-electron system (eV)
  ---------------------------------------------------
  alpha Z        PSCENC =      1383.12645016
  Ewald energy   TEWEN  =    309162.47617110
  -Hartree energ DENC   =   -371531.53820674
  -exchange      EXHF   =         0.00000000
[...]
      4.15591      6.34186     10.89511         0.163031      0.270476     -0.111083
     20.30072     12.39689     17.12989        -0.007348      0.013281      0.027365
     20.26706     17.52644     12.55557        -0.050459      1.273074     -0.972179
      7.04790     13.78912     12.31057        -0.297625     -0.090411     -0.099760
      9.87046      4.73421     10.20483         0.401405      0.014877      0.503182
     18.99293      8.42972     13.98423        -0.005138     -0.000713     -0.011110
     23.03129      1.31171     14.00677         0.006141      0.005700      0.013205
     12.07704      8.24835     16.91251        -0.021038      0.018866     -0.024793
      0.80854     16.67059     11.54386        -0.110485      0.454534     -0.305628
     22.54593      5.49427      9.44299         0.182245     -0.186040      0.399205
      1.63005      6.09065     10.11814         0.304097     -0.127270     -0.043846
      4.87647     13.20394     10.62861         0.423753     -0.170924      0.405663
      0.91073      7.59465     13.41772         0.454425      0.042180      0.156568
      5.55475      5.19549     15.80076        -0.000674     -0.008566      0.019807
      9.29168      3.54832     17.33429        -0.017609      0.000538      0.000891
     10.65615     10.10499     15.81473        -0.004725      0.006436      0.022817
     21.31283     13.57605     14.98684        -0.020475      0.005617      0.018524
     20.34739      1.95788     11.88993        -0.080361     -0.048262      0.410971
     13.40476     12.09288     10.11169        -0.267063      0.184653      0.079735
      3.33439      2.88355     10.10740        -0.016597     -0.058645      0.176418
      8.20834     13.86505     16.30631         0.004748      0.004107      0.000371
     21.32760     15.31331     12.98949         0.323499     -1.483744      0.174767
      1.43600      9.72878     11.88926         0.548562      0.277571      0.033598
     16.58313     10.06030     11.28988        -0.122038     -0.554736     -0.050473
      1.76725     14.80155     12.98451        -0.011622     -6.373993      0.288229
     16.39879     14.99633     11.63069         1.812503     -3.816679     -0.221117
     17.09655      0.89109     14.59664        -0.008485      0.012770     -0.019890
     21.47692      5.44698     16.96408        -0.000952      0.008469      0.009124
     17.21633     15.46078     16.47532        -0.001820     -0.002740     -0.002759
     14.63491      9.55703     13.07550         1.802568     -1.183767     -1.132983
     13.03010     11.41100     12.56124        -3.539290     -2.763650      1.760681
      9.97834      4.47821     14.94397         0.015312     -0.010398      0.004125
     22.90304     13.19668     12.81787         0.443611      0.292984      0.205424
     15.32867     10.76875     17.02218         0.002702      0.006086     -0.019215
      9.29733     13.52390     13.85149        -0.013657     -0.015113     -0.005650
     14.10975      9.38074     10.36813         0.272957     -0.120978      0.355972
     16.87010     11.42620     14.97172        -0.005841     -0.009746      0.004609
      3.32262      6.63083     16.50403         0.020813      0.014057     -0.012734
      1.54949      9.94023     14.56766         0.010834     -0.016661      0.002776
     19.17165     16.02572     14.42458        -0.005658      0.021934      0.020827
     19.38960      6.44002     12.14868        -0.137244      0.237796      0.177611
     12.36046      5.38816     14.27913        -0.008910     -0.001191      0.000982
     17.26797      9.04083     16.02081         0.005029      0.009706     -0.010153
     13.05025      3.12466     10.61647        -1.379315     -1.815491      0.505721
     18.86866      4.64651     10.30420        -0.040941     -0.028329      0.737434
      5.55892     17.27408     13.65459        -0.776062      0.201462     -0.933583
     16.22985     14.05956     14.55963        -0.019643      0.010210      0.004030
     21.62702     17.21093     14.86519        -0.003805     -0.017356      0.006749
     12.30819      5.75859     10.71453        -7.875646      6.655746      3.172353
     10.95979     17.93695     14.68720         0.014060     -0.012122      0.006568
     19.61274      1.71868     14.51000        -0.012408      0.003641      0.005455
     12.59301      2.10963     13.07169        -2.075802      0.601066     -1.053597
      8.19848      3.38158     11.81891        -0.112330      0.153509      0.034732
      0.27532     17.44013      9.01248        -0.251268      0.110668      0.305354
     10.71747     10.83021     18.28657        -0.006521     -0.005323      0.010876
     15.33358     16.76935     10.19493        -0.568450      0.127859      0.605456
      1.78613     12.43164     11.71795         0.027936     -0.142402      0.088875
     10.63268      7.32280     14.85584        -0.013473     -0.012773     -0.006957
     16.83786     12.69249     10.20447        -0.051637      0.274462      0.468997
     10.54709     12.72980     16.12873        -0.003094      0.014557     -0.003587
     17.61819     12.85384     12.80443        -0.353476      0.233012     -1.131665
     18.23551      2.19233     16.69029        -0.015429      0.005917      0.003420
     23.25384      5.58159     12.05458         0.252989     -0.003729     -0.060627
     12.50211      9.25474     14.32566        -0.004799      0.012660      0.021057
     19.12182      9.04362     11.38355         0.332201     -0.388139      0.425370
      5.52486      2.64048     16.27517        -0.013336     -0.006559     -0.012974
      4.76498     15.05334     12.64953         0.595194     -6.686349      0.306195
      5.61798     10.13290     14.04972         0.002727      0.007316      0.005325
      1.42896     11.32482     16.76958         0.005819      0.016512     -0.001219
      1.07865     10.91527      9.52151         0.183180      0.221060      0.420231
     18.75153     17.73580     16.27991         0.008006     -0.020494      0.007559
     12.59506      0.50191     10.87440        -0.226220      0.379778      0.151467
     14.15737      5.65980     16.26731         0.028765      0.027848     -0.009639
     20.16991      0.07395      9.92551        -0.071804      0.003108      0.278136
      2.22200      2.70048     12.55675        -0.080861     -0.092577     -0.891031
      4.01450      3.68482     14.26014         0.021580      0.005158      0.015123
     15.00637     12.76530     12.22697         2.642032      0.209753     -0.648730
     10.22577      7.42551     10.38809         0.253918     -0.701260      0.509553
     13.43789      1.05548     15.35240        -0.001469     -0.010951      0.001107
      3.54535     10.75329     10.45651         0.008646      0.700986      0.065705
      6.26814     10.91510     10.54651         0.152214      0.308773      0.026293
     10.30702      5.83863     12.64390         0.346587      0.050321     -0.728179
      5.57211      2.87242     11.55719         0.336229      0.279769     -0.362638
      1.70489      2.71693     15.12266        -0.003120      0.019257     -0.000761
     19.79345      9.86557     16.11681        -0.008730      0.000695      0.005521
     14.54261      5.07286     11.04652         1.373319      0.647118      0.815262
     14.10921     16.15557     12.56054        23.541308     14.645786     -4.540484
      0.73477      3.53889     10.45741         0.414913      0.159294      0.255696
     14.23743      3.53468     14.71955        -0.009978     -0.001438     -0.001423
      3.10901     17.00415     12.89023         0.016078     -0.145189     -0.341060
      1.87769      5.07857     13.75583         0.004929     -0.011436     -0.011412
      8.71870      1.88923     15.32761        -0.000869     -0.007464     -0.000136
      1.55829     12.62969     14.40300         0.009098      0.006220     -0.012223
     15.60336      7.52729     11.56016        -0.332046      0.211933      0.440303
     18.72793     13.21802     15.16150         0.002056      0.007642      0.002795
     16.47777     17.34580     12.64014        -0.778270      0.357523     -0.223138
     14.02574     11.51802     14.86704         0.008680      0.004743      0.019712
     16.92263      5.32193     12.14236         0.247697      0.052013     -0.038352
     22.88303      5.69579     14.70766        -0.009476     -0.008527     -0.004423
      3.70415     11.41274     15.33960         0.000508     -0.010850      0.006065
     14.82717      5.92171     13.65139         0.388253      0.187214     -0.664197
     19.21525      7.18346     16.28190         0.009556     -0.005239     -0.014968
     22.44156      0.49368     11.20910        -0.287288     -0.376633     -0.348402
      6.60443      3.54777     13.94582        -0.002092      0.007102      0.019618
      5.83544      8.02830     12.39473        -0.015400     -0.710933     -0.674469
      6.38907     15.39403     15.27562         0.007408     -0.000390      0.001008
      4.76814     12.42343     13.08921         0.240807      0.582509     -0.407548
      3.44435      8.62698     13.24127        -0.314359      0.096046      0.172001
      5.27245      7.67908     14.96775         0.004013     -0.011524      0.012903
     21.33745      8.20429     12.73516        -0.245123     -0.143879     -0.152479
     20.36287     12.76750     12.47801         0.323766      0.276026      0.435629
     17.28035      1.68228     11.96927        -0.172712     -0.265382      0.461823
      5.20160     16.84879     10.96698        -0.326690      0.372383      0.344652
      5.73213      7.28954     17.48340        -0.009635      0.015643     -0.019542
     14.77163     16.00924     15.94546         0.004974     -0.007408      0.007485
      9.60386     14.29879     11.38342        -0.519164     -0.400300      0.288014
     21.48622      3.55246     13.66334        -0.752753     -0.054563     -0.123755
      3.10310      8.03742      8.93261         0.098248     -0.237681      0.305439
      3.63221      5.50022      8.34891        -0.158773      0.562055      0.354383
      8.73253      2.37220      9.35416         0.186438      0.601661      0.328691
      0.78174      5.30470     17.03217        -0.003852      0.002784      0.016094
     13.40740      4.65477      8.60536        -0.203710      0.165391      0.205830
      5.74334     13.97321     17.47036         0.017876     -0.006373      0.007630
      4.85490     11.74990      8.34377         0.086099     -0.128779      0.514275
      6.44687      7.10699      9.87630         0.026100      0.049554      0.687217
      8.55334     10.82901      9.20005        -0.080590     -0.025642      0.729834
      5.29987      1.01807      9.62744        -0.069227      0.789772      0.103264
      5.64688      3.55318      8.85385        -0.372537     -0.056179      0.442084
     11.73545     16.16961     12.22768        -2.219155      1.035072     -0.709721
     12.88245     14.99948     14.36408         0.014246     -0.002835     -0.002328
     12.78244     11.72563     17.05852        -0.000438      0.025936      0.015562
     11.20186      2.20623     16.02674         0.021528     -0.014560     -0.016185
      6.14037     12.58557     15.28741         0.009529     -0.012108     -0.000283
     10.37531     15.33422     15.63913         0.014922     -0.006678     -0.022178
     17.93476     11.19284     17.45505         0.001900     -0.003186     -0.003913
     19.78533     15.07064     16.74817        -0.008455      0.001055     -0.025002
     14.99787     13.40876     16.69945        -0.001730      0.005591      0.007026
      0.18619      0.60257     16.20895         0.024286      0.008691     -0.016771
      6.65647      0.02708     15.96673         0.008227      0.006319     -0.012606
     11.78152     17.60491     16.90294        -0.007451     -0.013718     -0.018270
     11.42005      8.21053     19.94759        -0.010664     -0.004701      0.016569
      1.94841     10.98909     10.92575        -0.077046     -0.143162      0.088327
      9.58465     13.85726     15.45031         0.008888      0.009382      0.003895
     19.70678      7.99968     12.57709         0.138408     -0.171934     -0.259928
      0.40009     17.94876     10.58160         0.088668     -0.135816      0.356080
      0.34415      5.14988     10.51358         0.035397      0.032621      0.112532
      0.21642      2.08036     15.38732        -0.009027     -0.008542      0.012148
     14.28930     11.92429     16.42882        -0.028503     -0.018230     -0.014475
      5.00989      8.63222     13.69846        -0.013983      0.011749     -0.006070
     21.42279     13.69170     13.34099         0.244097      0.245674     -0.636539
     12.18742      2.00159     11.45195         0.189776     -0.071397      0.522476
      9.80179      3.07088     15.85130        -0.000871     -0.001112      0.012269
      1.95373      2.52197     10.94102         0.063595     -0.118767      0.121213
     16.43234      0.81267     13.10088         0.099783     -0.070728     -0.270879
     15.56990     16.27355     11.76084        -0.466153      4.550984     -0.175973
     15.21965      9.13359     11.56390         0.096348      0.045099      0.241764
      4.64622     16.53531     12.47363        -0.726866      6.171148     -0.319530
      4.93208      6.65200     16.19329         0.011922     -0.005772     -0.013743
     15.78144     14.74603     15.98473        -0.003087     -0.009945      0.009463
      5.06982     11.63094     14.47952        -0.021025     -0.012359     -0.012031
      8.63383     13.32142     12.34509        -0.301590     -0.008630      0.027815
     18.67681     16.10033     16.01356         0.003418      0.013770     -0.004427
     20.59607     16.53062     13.76419         0.017744      0.001373     -0.015828
     13.51479     10.43423     13.77296        -0.012387     -0.042115      0.007267
     13.80891      2.08804     14.12153         0.006637      0.020263      0.007475
     20.08975      2.75648     13.31200        -0.186243     -0.012424     -0.408350
     19.56957     10.94145     17.35777         0.008778     -0.026949      0.012416
      3.13099      6.52942      9.59393        -0.105257     -0.124253      0.086213
     18.51026      5.07285     11.87902        -0.271380      0.102542      0.118912
      9.34523      3.21643     10.64590        -0.127420     -0.310095      0.255624
     20.05133     13.59238     16.03575         0.006608      0.002422      0.007351
      6.62575     16.93574     14.77490        -0.007628     -0.002465     -0.014828
      0.54021      5.98812     13.50205         0.326424      0.207477     -0.385256
     13.45118     12.60314     11.70944         3.931518     -0.818647     -2.460738
      5.39024     13.63805     12.15046         0.110271     -0.585952      0.052231
     13.90396      5.13740     14.73822         0.021801      0.006779     -0.027759
     22.81316      4.93118     16.19315        -0.019952     -0.002787      0.014971
     20.81045      0.46044     11.40393         0.012037      0.044732      0.161624
      2.45010      3.53914     13.91910        -0.021739      0.011539     -0.002701
      1.12715     13.28354     12.97472        -0.166776     -0.562022     -0.195344
      5.42370      3.73645     15.08202         0.004680     -0.005978      0.006128
     13.14328      4.67139     10.24864         8.360399     -5.357905     -3.536120
     11.18070     11.38113     16.80149        -0.010104      0.003559     -0.004164
      6.58934     13.96310     16.06951         0.000911      0.002932     -0.023489
      4.88127     11.65920      9.99509         0.062372     -0.061646      0.054994
     17.34472     12.87463     14.40736        -0.000249     -0.013955      0.002081
     23.09648     17.94634     14.79529        -0.010718      0.020728     -0.006818
     16.46059     13.35206     11.67438        -0.663880     -1.357490      0.426335
     18.44770      1.07831     15.50651         0.000998     -0.010739     -0.007030
     10.68290      5.95195     11.00304        -1.141670      0.530595      0.485256
     10.52631     16.94821     15.98553         0.001950     -0.008508      0.008691
     11.90298      0.73436     15.75702         0.010564      0.017682      0.006558
      5.71814      6.71222     11.31648         0.020341     -0.130130     -0.076832
     15.41693      5.98005     12.10687        -0.140310     -0.482875     -0.769966
     10.79033      5.75479     14.21467         0.001766      0.025802     -0.034974
      7.89661     10.69049     10.72869        -0.133979     -0.067352     -0.025389
     18.82001      8.63315     15.58956        -0.006184     -0.003448     -0.006188
      1.62029     16.28844     12.91761        -0.333851      6.403068     -0.514192
      4.96103      2.61769     10.04353        -0.086642     -0.036729      0.099432
      1.83153      8.95162     13.29887        -0.001338     -0.166388     -0.279080
     13.05344     15.44546     12.76235       -22.300058    -15.850853      4.757215
     16.83334     10.59289     16.38986         0.005436      0.006454     -0.002046
      6.71066      3.80730     12.34244        -0.241632      0.035821     -0.704350
      2.05966     11.33341     15.26203        -0.001786      0.019209      0.002339
      8.27263      0.33495     15.56463         0.005554     -0.000259      0.011124
     11.44464      8.66751     15.42673         0.029044     -0.014596      0.018560
     10.96941      8.88143     18.43753        -0.022856     -0.031257     -0.006484
 -----------------------------------------------------------------------------------
    total drift:                                0.287410      0.319083      0.401027


--------------------------------------------------------------------------------------------------------



  FREE ENERGIE OF THE ION-ELECTRON SYSTEM (eV)
  ---------------------------------------------------
  free  energy   TOTEN  =     -1902.93850820 eV

  energy  without entropy=    -1902.93850820  energy(sigma->0) =    -1902.93850820



--------------------------------------------------------------------------------------------------------


    POTLOK:  cpu time    0.8508: real time    0.8538


--------------------------------------------------------------------------------------------------------


 stress matrix after NEB project (eV)
    -33.31646     -0.14666      0.11708
     -0.14666    -33.51755     -0.40329
      0.11708     -0.40329    -25.51417
  FORCES: max atom, RMS     0.044496    0.014670
  FORCE total and by dimension    0.245045    0.042115
  Stress total and by dimension   53.710156   33.517549


--------------------------------------------------------------------------------------------------------


  
 reached required accuracy - stopping structural energy minimisation
     LOOP+:  cpu time 1269.5752: real time 1275.3760
    4ORBIT:  cpu time    0.0000: real time    0.0000

 total amount of memory used by VASP MPI-rank0   703308. kBytes
=======================================================================

   base      :      30000. kBytes
   nonlr-proj:      17019. kBytes
   fftplans  :      30982. kBytes
   grid      :      57864. kBytes
   one-center:       1088. kBytes
   wavefun   :     566355. kBytes

  
  
 General timing and accounting informations for this job:
 ========================================================
  
                  Total CPU time used (sec):     1373.142
                            User time (sec):     1370.087
                          System time (sec):        3.055
                         Elapsed time (sec):     1380.232
  
                   Maximum memory used (kb):     1005184.
                   Average memory used (kb):           0.
  
                          Minor page faults:      3442798
                          Major page faults:          109
                 Voluntary context switches:         6834
