 running on   64 total cores
 distrk:  each k-point on   64 cores,    1 groups
 distr:  one band on    4 cores,   16 groups
 using from now: INCAR     
 vasp.5.4.4.18Apr17-6-g9f103f2a35 (build Oct 20 2021 08:33:53) complex           
 POSCAR found type information on POSCAR  C  H  O  Si W 
 POSCAR found :  5 types and     276 ions
 scaLAPACK will be used

 ----------------------------------------------------------------------------- 
|                                                                             |
|  ADVICE TO THIS USER RUNNING 'VASP/VAMP'   (HEAR YOUR MASTER'S VOICE ...):  |
|                                                                             |
|      You enforced a specific xc-type in the INCAR file,                     |
|      a different type was found on the POTCAR file                          |
|          I HOPE YOU KNOW, WHAT YOU ARE  DOING                               |
|                                                                             |
 ----------------------------------------------------------------------------- 

 LDA part: xc-table for Pade appr. of Perdew
 POSCAR found type information on POSCAR  C  H  O  Si W 
 POSCAR found :  5 types and     276 ions
 POSCAR, INCAR and KPOINTS ok, starting setup
 FFT: planning ...
 WAVECAR not read
 WARNING: random wavefunctions but no delay for mixing, default for NELMDL
 entering main loop
       N       E                     dE             d eps       ncg     rms          rms(c)
DAV:   1     0.128377322799E+05    0.12838E+05   -0.49457E+05  8592   0.123E+03
DAV:   2     0.611833489779E+03   -0.12226E+05   -0.11837E+05 10784   0.311E+02
DAV:   3    -0.201606032403E+04   -0.26279E+04   -0.26186E+04  8896   0.154E+02
DAV:   4    -0.211050124791E+04   -0.94441E+02   -0.94072E+02  8832   0.337E+01
DAV:   5    -0.211318950612E+04   -0.26883E+01   -0.26848E+01  9664   0.501E+00    0.128E+02
RMM:   6    -0.186747010382E+04    0.24572E+03   -0.11187E+03  7680   0.331E+01    0.533E+01
RMM:   7    -0.186447906913E+04    0.29910E+01   -0.65416E+01  7680   0.679E+00    0.312E+01
RMM:   8    -0.186441497382E+04    0.64095E-01   -0.19880E+01  7680   0.349E+00    0.159E+01
RMM:   9    -0.186092651946E+04    0.34885E+01   -0.58738E+00  7680   0.264E+00    0.353E+00
RMM:  10    -0.186064147432E+04    0.28505E+00   -0.59129E-01  7685   0.634E-01    0.209E+00
RMM:  11    -0.186048935541E+04    0.15212E+00   -0.45200E-01  7685   0.622E-01    0.131E+00
RMM:  12    -0.186036531066E+04    0.12404E+00   -0.15238E-01  7680   0.409E-01    0.761E-01
RMM:  13    -0.186033818345E+04    0.27127E-01   -0.34786E-02  8005   0.142E-01    0.312E-01
RMM:  14    -0.186031658728E+04    0.21596E-01   -0.22937E-02  7680   0.142E-01    0.232E-01
RMM:  15    -0.186031787131E+04   -0.12840E-02   -0.14053E-02  7685   0.952E-02    0.107E-01
RMM:  16    -0.186032662655E+04   -0.87552E-02   -0.71874E-03  7696   0.628E-02    0.103E-01
RMM:  17    -0.186033390155E+04   -0.72750E-02   -0.41125E-03  7689   0.461E-02    0.371E-02
RMM:  18    -0.186033868396E+04   -0.47824E-02   -0.65360E-04  7749   0.195E-02    0.194E-02
RMM:  19    -0.186034366075E+04   -0.49768E-02   -0.55858E-04  7680   0.176E-02    0.154E-02
RMM:  20    -0.186034503239E+04   -0.13716E-02   -0.15389E-04  7707   0.800E-03    0.769E-03
RMM:  21    -0.186034588227E+04   -0.84988E-03   -0.79795E-05  7685   0.588E-03    0.713E-03
RMM:  22    -0.186034612740E+04   -0.24513E-03   -0.18550E-05  7706   0.278E-03    0.283E-03
RMM:  23    -0.186034629318E+04   -0.16578E-03   -0.71091E-06  6930   0.179E-03    0.139E-03
RMM:  24    -0.186034635282E+04   -0.59639E-04   -0.19988E-06  6671   0.882E-04    0.120E-03
RMM:  25    -0.186034641437E+04   -0.61555E-04   -0.25420E-06  6719   0.966E-04    0.892E-04
RMM:  26    -0.186034642612E+04   -0.11751E-04   -0.46975E-07  5508   0.428E-04    0.431E-04
RMM:  27    -0.186034643453E+04   -0.84070E-05   -0.26205E-07  4938   0.326E-04    0.227E-04
RMM:  28    -0.186034643746E+04   -0.29327E-05   -0.76510E-08  4146   0.193E-04    0.160E-04
RMM:  29    -0.186034643918E+04   -0.17225E-05   -0.40772E-08  4041   0.159E-04    0.847E-05
RMM:  30    -0.186034644005E+04   -0.86421E-06   -0.19116E-08  3396   0.122E-04    0.486E-05
RMM:  31    -0.186034644037E+04   -0.31971E-06   -0.84794E-09  3009   0.955E-05    0.283E-05
RMM:  32    -0.186034644055E+04   -0.18261E-06   -0.30644E-09  2246   0.833E-05    0.187E-05
RMM:  33    -0.186034644061E+04   -0.56199E-07   -0.12944E-09  1757   0.747E-05
   1 F= -.18844045E+04 E0= -.18844044E+04  d E =-.188440E+04
quench:  g(F)=  0.000E+00 g(S)=  0.000E+00 dE (1.order)= 0.000E+00
 reached required accuracy - stopping structural energy minimisation
