 276 276   0   0
  0.4132262E+02  0.2341129E-08  0.1812124E-08  0.2688337E-08  0.0000000E+00
   1.0000000000000000E-004
  CAR 
 unknown system                          
      6.13296626    -27.78848635  301     -1.22976545      1.00000000
    -27.788  0.0000E+00  0.0000E+00
    -27.675  0.0000E+00  0.0000E+00
    -27.562  0.0000E+00  0.0000E+00
    -27.449  0.0000E+00  0.0000E+00
    -27.336  0.0000E+00  0.0000E+00
    -27.223  0.0000E+00  0.0000E+00
    -27.110  0.0000E+00  0.0000E+00
    -26.997  0.0000E+00  0.0000E+00
    -26.884  0.4211E-15  0.4762E-16
    -26.771  0.1654E-12  0.1875E-13
    -26.658  0.3480E-10  0.3953E-11
    -26.545  0.3914E-08  0.4465E-09
    -26.432  0.2359E-06  0.2712E-07
    -26.319  0.7637E-05  0.8906E-06
    -26.205  0.1333E-03  0.1596E-04
    -26.092  0.1257E-02  0.1581E-03
    -25.979  0.6435E-02  0.8858E-03
    -25.866  0.1792E-01  0.2911E-02
    -25.753  0.2718E-01  0.5985E-02
    -25.640  0.2250E-01  0.8529E-02
    -25.527  0.1015E-01  0.9677E-02
    -25.414  0.2499E-02  0.9960E-02
    -25.301  0.4188E-03  0.1001E-01
    -25.188  0.1002E-02  0.1012E-01
    -25.075  0.6416E-02  0.1085E-01
    -24.962  0.2551E-01  0.1373E-01
    -24.849  0.6611E-01  0.2121E-01
    -24.736  0.1214E+00  0.3493E-01
    -24.622  0.1739E+00  0.5460E-01
    -24.509  0.2179E+00  0.7924E-01
    -24.396  0.2612E+00  0.1088E+00
    -24.283  0.3056E+00  0.1433E+00
    -24.170  0.3438E+00  0.1822E+00
    -24.057  0.3778E+00  0.2249E+00
    -23.944  0.4203E+00  0.2724E+00
    -23.831  0.4600E+00  0.3245E+00
    -23.718  0.4794E+00  0.3787E+00
    -23.605  0.4871E+00  0.4337E+00
    -23.492  0.5009E+00  0.4904E+00
    -23.379  0.5279E+00  0.5501E+00
    -23.266  0.5633E+00  0.6138E+00
    -23.153  0.6137E+00  0.6831E+00
    -23.039  0.7037E+00  0.7627E+00
    -22.926  0.8366E+00  0.8573E+00
    -22.813  0.9710E+00  0.9671E+00
    -22.700  0.1027E+01  0.1083E+01
    -22.587  0.9609E+00  0.1192E+01
    -22.474  0.8264E+00  0.1285E+01
    -22.361  0.6730E+00  0.1361E+01
    -22.248  0.5033E+00  0.1418E+01
    -22.135  0.3379E+00  0.1457E+01
    -22.022  0.2112E+00  0.1480E+01
    -21.909  0.1315E+00  0.1495E+01
    -21.796  0.9907E-01  0.1506E+01
    -21.683  0.9349E-01  0.1517E+01
    -21.570  0.7136E-01  0.1525E+01
    -21.456  0.3325E-01  0.1529E+01
    -21.343  0.8750E-02  0.1530E+01
    -21.230  0.1302E-02  0.1530E+01
    -21.117  0.4531E-03  0.1530E+01
    -21.004  0.2596E-02  0.1530E+01
    -20.891  0.1041E-01  0.1532E+01
    -20.778  0.2275E-01  0.1534E+01
    -20.665  0.2711E-01  0.1537E+01
    -20.552  0.1763E-01  0.1539E+01
    -20.439  0.6246E-02  0.1540E+01
    -20.326  0.1204E-02  0.1540E+01
    -20.213  0.1259E-03  0.1540E+01
    -20.100  0.7114E-05  0.1540E+01
    -19.987  0.2167E-06  0.1540E+01
    -19.873  0.3546E-08  0.1540E+01
    -19.760  0.3109E-10  0.1540E+01
    -19.647  0.3984E-12  0.1540E+01
    -19.534  0.5072E-10  0.1540E+01
    -19.421  0.5443E-08  0.1540E+01
    -19.308  0.3130E-06  0.1540E+01
    -19.195  0.9673E-05  0.1540E+01
    -19.082  0.1612E-03  0.1540E+01
    -18.969  0.1452E-02  0.1540E+01
    -18.856  0.7098E-02  0.1541E+01
    -18.743  0.1888E-01  0.1543E+01
    -18.630  0.2737E-01  0.1546E+01
    -18.517  0.2165E-01  0.1549E+01
    -18.404  0.9333E-02  0.1550E+01
    -18.290  0.2191E-02  0.1550E+01
    -18.177  0.2792E-03  0.1550E+01
    -18.064  0.1925E-04  0.1550E+01
    -17.951  0.7163E-06  0.1550E+01
    -17.838  0.1433E-07  0.1550E+01
    -17.725  0.1538E-09  0.1550E+01
    -17.612  0.8825E-12  0.1550E+01
    -17.499  0.2813E-14  0.1550E+01
    -17.386  0.4580E-13  0.1550E+01
    -17.273  0.1109E-10  0.1550E+01
    -17.160  0.1435E-08  0.1550E+01
    -17.047  0.9944E-07  0.1550E+01
    -16.934  0.3699E-05  0.1550E+01
    -16.821  0.7411E-04  0.1550E+01
    -16.707  0.8023E-03  0.1550E+01
    -16.594  0.4708E-02  0.1551E+01
    -16.481  0.1502E-01  0.1552E+01
    -16.368  0.2610E-01  0.1555E+01
    -16.255  0.2474E-01  0.1558E+01
    -16.142  0.1279E-01  0.1560E+01
    -16.029  0.3602E-02  0.1560E+01
    -15.916  0.5512E-03  0.1560E+01
    -15.803  0.4570E-04  0.1560E+01
    -15.690  0.2046E-05  0.1560E+01
    -15.577  0.4929E-07  0.1560E+01
    -15.464  0.6389E-09  0.1560E+01
    -15.351  0.2618E-09  0.1560E+01
    -15.238  0.2244E-07  0.1560E+01
    -15.124  0.1050E-05  0.1560E+01
    -15.011  0.2642E-04  0.1560E+01
    -14.898  0.3595E-03  0.1560E+01
    -14.785  0.2663E-02  0.1560E+01
    -14.672  0.1091E-01  0.1562E+01
    -14.559  0.2575E-01  0.1564E+01
    -14.446  0.3919E-01  0.1569E+01
    -14.333  0.4775E-01  0.1574E+01
    -14.220  0.5770E-01  0.1581E+01
    -14.107  0.7576E-01  0.1589E+01
    -13.994  0.1074E+00  0.1602E+01
    -13.881  0.1483E+00  0.1618E+01
    -13.768  0.1866E+00  0.1639E+01
    -13.655  0.2127E+00  0.1663E+01
    -13.541  0.2214E+00  0.1688E+01
    -13.428  0.2177E+00  0.1713E+01
    -13.315  0.2067E+00  0.1736E+01
    -13.202  0.1919E+00  0.1758E+01
    -13.089  0.1870E+00  0.1779E+01
    -12.976  0.2003E+00  0.1802E+01
    -12.863  0.2177E+00  0.1827E+01
    -12.750  0.2264E+00  0.1852E+01
    -12.637  0.2271E+00  0.1878E+01
    -12.524  0.2219E+00  0.1903E+01
    -12.411  0.2178E+00  0.1928E+01
    -12.298  0.2183E+00  0.1952E+01
    -12.185  0.2209E+00  0.1977E+01
    -12.072  0.2314E+00  0.2003E+01
    -11.958  0.2478E+00  0.2031E+01
    -11.845  0.2520E+00  0.2060E+01
    -11.732  0.2421E+00  0.2087E+01
    -11.619  0.2431E+00  0.2115E+01
    -11.506  0.2645E+00  0.2145E+01
    -11.393  0.2894E+00  0.2177E+01
    -11.280  0.3176E+00  0.2213E+01
    -11.167  0.3732E+00  0.2256E+01
    -11.054  0.4536E+00  0.2307E+01
    -10.941  0.5279E+00  0.2367E+01
    -10.828  0.5798E+00  0.2432E+01
    -10.715  0.6121E+00  0.2501E+01
    -10.602  0.6305E+00  0.2573E+01
    -10.489  0.6405E+00  0.2645E+01
    -10.375  0.6524E+00  0.2719E+01
    -10.262  0.6593E+00  0.2793E+01
    -10.149  0.6273E+00  0.2864E+01
    -10.036  0.5413E+00  0.2925E+01
     -9.923  0.4319E+00  0.2974E+01
     -9.810  0.3145E+00  0.3010E+01
     -9.697  0.1913E+00  0.3031E+01
     -9.584  0.1203E+00  0.3045E+01
     -9.471  0.1472E+00  0.3062E+01
     -9.358  0.2143E+00  0.3086E+01
     -9.245  0.2357E+00  0.3113E+01
     -9.132  0.2215E+00  0.3138E+01
     -9.019  0.2298E+00  0.3164E+01
     -8.906  0.2629E+00  0.3193E+01
     -8.792  0.2874E+00  0.3226E+01
     -8.679  0.3024E+00  0.3260E+01
     -8.566  0.3410E+00  0.3299E+01
     -8.453  0.4020E+00  0.3344E+01
     -8.340  0.4438E+00  0.3394E+01
     -8.227  0.4673E+00  0.3447E+01
     -8.114  0.5232E+00  0.3506E+01
     -8.001  0.6179E+00  0.3576E+01
     -7.888  0.7059E+00  0.3656E+01
     -7.775  0.7667E+00  0.3743E+01
     -7.662  0.8122E+00  0.3834E+01
     -7.549  0.8517E+00  0.3931E+01
     -7.436  0.8927E+00  0.4032E+01
     -7.323  0.9349E+00  0.4137E+01
     -7.209  0.9745E+00  0.4248E+01
     -7.096  0.1019E+01  0.4363E+01
     -6.983  0.1062E+01  0.4483E+01
     -6.870  0.1082E+01  0.4605E+01
     -6.757  0.1073E+01  0.4727E+01
     -6.644  0.1053E+01  0.4846E+01
     -6.531  0.1049E+01  0.4964E+01
     -6.418  0.1059E+01  0.5084E+01
     -6.305  0.1057E+01  0.5204E+01
     -6.192  0.1030E+01  0.5320E+01
     -6.079  0.1001E+01  0.5433E+01
     -5.966  0.9889E+00  0.5545E+01
     -5.853  0.9787E+00  0.5656E+01
     -5.740  0.9499E+00  0.5763E+01
     -5.626  0.9083E+00  0.5866E+01
     -5.513  0.8618E+00  0.5963E+01
     -5.400  0.7924E+00  0.6053E+01
     -5.287  0.6681E+00  0.6128E+01
     -5.174  0.4925E+00  0.6184E+01
     -5.061  0.3255E+00  0.6221E+01
     -4.948  0.2126E+00  0.6245E+01
     -4.835  0.1409E+00  0.6261E+01
     -4.722  0.8869E-01  0.6271E+01
     -4.609  0.5013E-01  0.6277E+01
     -4.496  0.2262E-01  0.6279E+01
     -4.383  0.6861E-02  0.6280E+01
     -4.270  0.1241E-02  0.6280E+01
     -4.157  0.1262E-03  0.6280E+01
     -4.043  0.7044E-05  0.6280E+01
     -3.930  0.2130E-06  0.6280E+01
     -3.817  0.3469E-08  0.6280E+01
     -3.704  0.3030E-10  0.6280E+01
     -3.591  0.1415E-12  0.6280E+01
     -3.478  0.3535E-15  0.6280E+01
     -3.365  0.0000E+00  0.6280E+01
     -3.252  0.0000E+00  0.6280E+01
     -3.139  0.0000E+00  0.6280E+01
     -3.026  0.0000E+00  0.6280E+01
     -2.913  0.1473E-16  0.6280E+01
     -2.800  0.8673E-14  0.6280E+01
     -2.687  0.2508E-11  0.6280E+01
     -2.574  0.3873E-09  0.6280E+01
     -2.460  0.3200E-07  0.6280E+01
     -2.347  0.1419E-05  0.6280E+01
     -2.234  0.3384E-04  0.6280E+01
     -2.121  0.4357E-03  0.6280E+01
     -2.008  0.3038E-02  0.6280E+01
     -1.895  0.1151E-01  0.6282E+01
     -1.782  0.2374E-01  0.6284E+01
     -1.669  0.2671E-01  0.6287E+01
     -1.556  0.1639E-01  0.6289E+01
     -1.443  0.5480E-02  0.6290E+01
     -1.330  0.9969E-03  0.6290E+01
     -1.217  0.1092E-03  0.6290E+01
     -1.104  0.1826E-03  0.6290E+01
     -0.991  0.1561E-02  0.6290E+01
     -0.877  0.7454E-02  0.6291E+01
     -0.764  0.1937E-01  0.6293E+01
     -0.651  0.2743E-01  0.6296E+01
     -0.538  0.2129E-01  0.6299E+01
     -0.425  0.9975E-02  0.6300E+01
     -0.312  0.8312E-02  0.6301E+01
     -0.199  0.2201E-01  0.6303E+01
     -0.086  0.4496E-01  0.6308E+01
      0.027  0.5940E-01  0.6315E+01
      0.140  0.6240E-01  0.6322E+01
      0.253  0.7014E-01  0.6330E+01
      0.366  0.8212E-01  0.6339E+01
      0.479  0.9079E-01  0.6350E+01
      0.592  0.1020E+00  0.6361E+01
      0.706  0.1174E+00  0.6374E+01
      0.819  0.1331E+00  0.6389E+01
      0.932  0.1539E+00  0.6407E+01
      1.045  0.1849E+00  0.6428E+01
      1.158  0.2149E+00  0.6452E+01
      1.271  0.2327E+00  0.6478E+01
      1.384  0.2423E+00  0.6506E+01
      1.497  0.2473E+00  0.6534E+01
      1.610  0.2474E+00  0.6562E+01
      1.723  0.2479E+00  0.6590E+01
      1.836  0.2585E+00  0.6619E+01
      1.949  0.2793E+00  0.6651E+01
      2.062  0.3023E+00  0.6685E+01
      2.175  0.3285E+00  0.6722E+01
      2.289  0.3661E+00  0.6763E+01
      2.402  0.4118E+00  0.6810E+01
      2.515  0.4563E+00  0.6861E+01
      2.628  0.4914E+00  0.6917E+01
      2.741  0.5143E+00  0.6975E+01
      2.854  0.5331E+00  0.7035E+01
      2.967  0.5565E+00  0.7098E+01
      3.080  0.5812E+00  0.7164E+01
      3.193  0.5957E+00  0.7231E+01
      3.306  0.5919E+00  0.7298E+01
      3.419  0.5690E+00  0.7363E+01
      3.532  0.5358E+00  0.7423E+01
      3.645  0.5071E+00  0.7481E+01
      3.758  0.4866E+00  0.7536E+01
      3.872  0.4534E+00  0.7587E+01
      3.985  0.3772E+00  0.7630E+01
      4.098  0.2562E+00  0.7659E+01
      4.211  0.1307E+00  0.7673E+01
      4.324  0.4641E-01  0.7679E+01
      4.437  0.1074E-01  0.7680E+01
      4.550  0.1532E-02  0.7680E+01
      4.663  0.1293E-03  0.7680E+01
      4.776  0.6260E-05  0.7680E+01
      4.889  0.1700E-06  0.7680E+01
      5.002  0.2549E-08  0.7680E+01
      5.115  0.2088E-10  0.7680E+01
      5.228  0.9271E-13  0.7680E+01
      5.341  0.2215E-15  0.7680E+01
      5.455  0.0000E+00  0.7680E+01
      5.568  0.0000E+00  0.7680E+01
      5.681  0.0000E+00  0.7680E+01
      5.794  0.0000E+00  0.7680E+01
      5.907  0.0000E+00  0.7680E+01
      6.020  0.0000E+00  0.7680E+01
      6.133  0.0000E+00  0.7680E+01
