<?xml version="1.0" encoding="ISO-8859-1"?>
<modeling>
 <generator>
  <i name="program" type="string">vasp </i>
  <i name="version" type="string">5.4.4.18Apr17-6-g9f103f2a35  </i>
  <i name="subversion" type="string">(build Oct 20 2021 08:33:53) complex            parallel </i>
  <i name="platform" type="string">LinuxGNU </i>
  <i name="date" type="string">2024 04 14 </i>
  <i name="time" type="string">09:06:36 </i>
 </generator>
 <incar>
  <i type="string" name="PREC">normal</i>
  <i type="string" name="ALGO"> Fast</i>
  <i type="int" name="ICHARG">     2</i>
  <i type="int" name="IBRION">     3</i>
  <i name="EDIFF">      0.00000010</i>
  <i name="EDIFFG">     -0.05000000</i>
  <i type="int" name="NSW">   200</i>
  <i type="int" name="ISIF">     0</i>
  <i name="ENCUT">    500.00000000</i>
  <i name="POTIM">      0.00000000</i>
  <i type="string" name="LREAL"> Auto</i>
  <i type="int" name="ISMEAR">     0</i>
  <i name="SIGMA">      0.20000000</i>
  <i type="logical" name="LWAVE"> F  </i>
  <i type="logical" name="LCHARG"> F  </i>
  <i type="logical" name="LASPH"> T  </i>
  <v type="int" name="KPOINT_BSE">    -1     0     0     0</v>
  <i type="string" name="GGA"> RP</i>
  <i type="logical" name="LDIPOL"> T  </i>
  <i type="int" name="IDIPOL">     3</i>
  <v name="DIPOL">     11.12130000      8.98370000     13.73010000</v>
  <i type="logical" name="LASPH"> T  </i>
 </incar>
 <structure name="primitive_cell" >
  <crystal>
   <varray name="basis" >
    <v>      23.41129460       0.00000000       0.00000000 </v>
    <v>       0.00000000      18.12123695       0.00000000 </v>
    <v>       0.00000000       0.00000000      26.88336651 </v>
   </varray>
   <i name="volume">  11405.04286946 </i>
   <varray name="rec_basis" >
    <v>       0.04271443       0.00000000       0.00000000 </v>
    <v>       0.00000000       0.05518387       0.00000000 </v>
    <v>       0.00000000       0.00000000       0.03719772 </v>
   </varray>
  </crystal>
  <varray name="positions" >
   <v>      -0.45450808      -0.46059191      -0.27073455 </v>
   <v>      -0.41832593      -0.43406717      -0.29031176 </v>
   <v>      -0.47859479      -0.40811743      -0.23200656 </v>
   <v>      -0.43635227       0.46373623      -0.25048686 </v>
   <v>       0.47483698      -0.45566130      -0.32075374 </v>
   <v>      -0.47245657       0.43625701      -0.23195076 </v>
   <v>      -0.42157884       0.42780120      -0.28084236 </v>
   <v>      -0.40126299       0.46940603      -0.22323471 </v>
   <v>       0.48409220      -0.42786718      -0.21122507 </v>
   <v>      -0.44441307      -0.39091016      -0.20021907 </v>
   <v>      -0.46853972      -0.32865737      -0.23147296 </v>
   <v>      -0.43182994      -0.30616972      -0.25124965 </v>
   <v>      -0.47055065      -0.49926670      -0.37579372 </v>
   <v>       0.42862467       0.48412280      -0.29234747 </v>
   <v>       0.46164801      -0.34500202      -0.31448681 </v>
   <v>      -0.49674707      -0.29168712      -0.21111990 </v>
   <v>      -0.45294131      -0.29219853      -0.36315932 </v>
   <v>      -0.41648358       0.41446730      -0.38610808 </v>
   <v>       0.47923485      -0.31555616      -0.37027677 </v>
   <v>      -0.34596092      -0.35099791      -0.36602674 </v>
   <v>       0.46088992      -0.39694251      -0.40035825 </v>
   <v>       0.49446794      -0.47310673      -0.42582841 </v>
   <v>      -0.38941723      -0.28646364      -0.38858133 </v>
   <v>      -0.39594687       0.36949276      -0.39568786 </v>
   <v>       0.45531994       0.45604596      -0.44666651 </v>
   <v>      -0.47098984      -0.43183717      -0.47078513 </v>
   <v>      -0.28191083      -0.36040876      -0.39038615 </v>
   <v>      -0.40296266      -0.31177972      -0.44576263 </v>
   <v>       0.44925902      -0.24797362      -0.40104588 </v>
   <v>      -0.26363257      -0.44573507      -0.40509837 </v>
   <v>      -0.35814934      -0.20525114      -0.37882225 </v>
   <v>      -0.23488957      -0.32828829      -0.35033279 </v>
   <v>       0.38660019       0.30069718      -0.35181486 </v>
   <v>      -0.42372762      -0.36976756      -0.48818961 </v>
   <v>      -0.40592505       0.33807778      -0.45185695 </v>
   <v>      -0.47189182       0.34871570      -0.47014662 </v>
   <v>       0.46125914       0.37022313      -0.47155308 </v>
   <v>      -0.20239970       0.43829605      -0.36499999 </v>
   <v>      -0.28117400      -0.31332653      -0.44273312 </v>
   <v>       0.39688060       0.24923515      -0.35585721 </v>
   <v>      -0.37487805      -0.41742213       0.48637871 </v>
   <v>      -0.36666616       0.38196695      -0.49219930 </v>
   <v>       0.42647820       0.29927107      -0.44505580 </v>
   <v>      -0.19706321      -0.46808908      -0.42038672 </v>
   <v>       0.40958091      -0.18247045      -0.42491315 </v>
   <v>      -0.39106012       0.24951948      -0.45192902 </v>
   <v>       0.25201746       0.45820875      -0.35092956 </v>
   <v>       0.24604511       0.43784517      -0.31802471 </v>
   <v>      -0.18005380       0.45271333      -0.39379235 </v>
   <v>      -0.16493115      -0.34101746      -0.35415870 </v>
   <v>       0.41888941       0.22247273      -0.41077068 </v>
   <v>      -0.44342670      -0.31511309       0.46724942 </v>
   <v>       0.35095007      -0.18050665      -0.39287186 </v>
   <v>      -0.13941863      -0.37826639      -0.30333543 </v>
   <v>      -0.32580948      -0.13091131      -0.40542286 </v>
   <v>       0.47834251       0.17417923      -0.40367202 </v>
   <v>      -0.15573529      -0.39991903      -0.40059676 </v>
   <v>      -0.48801560      -0.12112843      -0.45306466 </v>
   <v>       0.44025846       0.37738205       0.47032443 </v>
   <v>       0.44444589      -0.10182115      -0.41690260 </v>
   <v>      -0.25990013      -0.23394325      -0.46416549 </v>
   <v>      -0.30723121      -0.16796783      -0.45883375 </v>
   <v>      -0.12007570      -0.34578152      -0.28022024 </v>
   <v>      -0.44922716      -0.11792490      -0.46573624 </v>
   <v>      -0.40629625      -0.07429335      -0.42193330 </v>
   <v>       0.39689762      -0.19926998      -0.48447717 </v>
   <v>      -0.36956145      -0.06188563      -0.40602152 </v>
   <v>      -0.18913669      -0.47961052      -0.47997231 </v>
   <v>      -0.34990126      -0.44078907       0.43015089 </v>
   <v>      -0.34147466       0.38518598       0.45034791 </v>
   <v>      -0.26444208      -0.09226063      -0.38700191 </v>
   <v>      -0.33351162       0.47056875       0.43001156 </v>
   <v>      -0.20114401      -0.21563691      -0.43536519 </v>
   <v>      -0.35901135      -0.24037741       0.45481558 </v>
   <v>      -0.13396892      -0.26054543      -0.36258520 </v>
   <v>      -0.41016013       0.17020937      -0.47466945 </v>
   <v>       0.21410198       0.42256799      -0.39645810 </v>
   <v>       0.26172792      -0.25083544      -0.43046969 </v>
   <v>      -0.42544062      -0.24932605       0.43556436 </v>
   <v>       0.28167586      -0.17460899      -0.40208789 </v>
   <v>      -0.23785012       0.15888318      -0.34884035 </v>
   <v>      -0.42580999       0.11163688      -0.42958108 </v>
   <v>       0.23839196       0.34133188      -0.41203517 </v>
   <v>       0.22497325       0.47861436      -0.44316800 </v>
   <v>      -0.49114982       0.09351548      -0.41404618 </v>
   <v>       0.24577118      -0.17236248      -0.34983877 </v>
   <v>      -0.22022897       0.17600748      -0.37935467 </v>
   <v>      -0.10838825       0.39030631      -0.38379743 </v>
   <v>       0.37288419       0.15727726      -0.43043721 </v>
   <v>       0.24022876      -0.38578066      -0.47755020 </v>
   <v>       0.45050603      -0.01215909      -0.40499537 </v>
   <v>      -0.27715970       0.34886852       0.45166811 </v>
   <v>      -0.29166097      -0.38964958       0.41995768 </v>
   <v>      -0.49558038       0.02434607      -0.37134331 </v>
   <v>       0.45631390       0.38363547       0.40928789 </v>
   <v>      -0.24744894      -0.23549155       0.47629548 </v>
   <v>       0.40895618       0.49391873       0.40569060 </v>
   <v>       0.36894173      -0.29646103       0.43900002 </v>
   <v>      -0.46209675       0.17160136       0.48623709 </v>
   <v>      -0.39730993      -0.42715068       0.38567099 </v>
   <v>      -0.44364583      -0.16972484       0.44175101 </v>
   <v>       0.24736549      -0.12680608      -0.33096187 </v>
   <v>      -0.47426278       0.37296499       0.39855594 </v>
   <v>       0.31538097      -0.45767966       0.44243467 </v>
   <v>      -0.14420376      -0.19480541      -0.40348444 </v>
   <v>      -0.37882057       0.33512375       0.41090545 </v>
   <v>       0.36878912      -0.20968840       0.45920930 </v>
   <v>       0.34681565      -0.44078226       0.42038813 </v>
   <v>      -0.25386162      -0.41450414       0.42248819 </v>
   <v>      -0.44242981      -0.09247603       0.47473025 </v>
   <v>      -0.40889798      -0.37613330       0.37803474 </v>
   <v>       0.43678778       0.46495235       0.38641325 </v>
   <v>       0.21642535      -0.30329826      -0.46141574 </v>
   <v>      -0.08107092       0.35715159      -0.36797927 </v>
   <v>       0.21405265      -0.46865834      -0.49035830 </v>
   <v>      -0.15474730      -0.11296778      -0.37716041 </v>
   <v>       0.28228799       0.25095485      -0.48136934 </v>
   <v>      -0.29689544      -0.20799798       0.43426040 </v>
   <v>      -0.15823618       0.49663699       0.46783897 </v>
   <v>       0.39233005       0.02394406      -0.38016441 </v>
   <v>       0.23206141       0.26121215      -0.43901677 </v>
   <v>      -0.36364452       0.13405242       0.48937667 </v>
   <v>       0.24925755       0.49821676       0.46105570 </v>
   <v>       0.14626923       0.42110849      -0.38080936 </v>
   <v>       0.23668145       0.20005537      -0.39513417 </v>
   <v>      -0.20221469      -0.05633034      -0.40439218 </v>
   <v>      -0.42742321      -0.27748428       0.37613173 </v>
   <v>       0.27304521      -0.09622068      -0.43225547 </v>
   <v>      -0.43859219       0.31296914       0.38122611 </v>
   <v>      -0.17178447       0.41056901       0.45190334 </v>
   <v>      -0.19411585       0.26883405       0.48316661 </v>
   <v>      -0.39733301      -0.05328946       0.46722346 </v>
   <v>       0.33729937      -0.35487359       0.39908301 </v>
   <v>      -0.26937299       0.10340353      -0.45706915 </v>
   <v>      -0.20934471       0.33512312       0.44187265 </v>
   <v>       0.15777596      -0.31559380      -0.42981612 </v>
   <v>      -0.18322241      -0.44575439       0.42344221 </v>
   <v>       0.41022327      -0.15575374       0.42343739 </v>
   <v>       0.35427373       0.07158909      -0.42125821 </v>
   <v>       0.27476529       0.35435674       0.44851223 </v>
   <v>      -0.21163716       0.11429892      -0.42334210 </v>
   <v>       0.46850521       0.04215841      -0.45348268 </v>
   <v>       0.46900683      -0.08338866       0.44382838 </v>
   <v>      -0.49872707      -0.05251451       0.45484168 </v>
   <v>      -0.17164130      -0.23245946       0.46794226 </v>
   <v>       0.35019344       0.24179260       0.43963639 </v>
   <v>       0.30104714      -0.18387929       0.45792526 </v>
   <v>      -0.28156621      -0.29888334       0.38346059 </v>
   <v>       0.24506699       0.14832603      -0.40212804 </v>
   <v>      -0.47942146       0.16563950       0.42598659 </v>
   <v>      -0.44256606       0.22761498       0.39490854 </v>
   <v>       0.42161095       0.31643609       0.37959630 </v>
   <v>       0.28664212       0.26528561       0.45911077 </v>
   <v>      -0.25000693       0.19636263       0.45803819 </v>
   <v>       0.45189954       0.18474620       0.42059728 </v>
   <v>      -0.29953523      -0.11726041       0.43263529 </v>
   <v>       0.12165895       0.37941508      -0.38845990 </v>
   <v>      -0.09052631      -0.19620692      -0.44254923 </v>
   <v>      -0.15884709      -0.40238953       0.41959617 </v>
   <v>      -0.40673065      -0.24682900       0.35239799 </v>
   <v>      -0.29810207       0.10003013       0.48732303 </v>
   <v>       0.20366815      -0.25924296       0.48688872 </v>
   <v>      -0.28078056      -0.24439528       0.37958300 </v>
   <v>      -0.18146991      -0.06035931      -0.46359132 </v>
   <v>      -0.08858302      -0.49207153       0.47371881 </v>
   <v>       0.24424715       0.42559019       0.42094710 </v>
   <v>      -0.16192720       0.14981133      -0.46029207 </v>
   <v>       0.39917610       0.23267871       0.39600320 </v>
   <v>       0.34939044       0.01182251      -0.46955973 </v>
   <v>       0.40547429      -0.36053648       0.33881989 </v>
   <v>      -0.13021182      -0.24025602       0.46415352 </v>
   <v>       0.31174138       0.47365958       0.36925764 </v>
   <v>      -0.33494065      -0.04677867       0.43747644 </v>
   <v>       0.39849950      -0.15170252       0.38878680 </v>
   <v>      -0.19851382       0.03375451      -0.39416143 </v>
   <v>       0.28520546       0.05538079      -0.40619106 </v>
   <v>       0.28330833      -0.01111769      -0.45077824 </v>
   <v>       0.14712345      -0.46874625       0.49254493 </v>
   <v>      -0.02475756       0.32784112      -0.39755604 </v>
   <v>      -0.08440675       0.30464787      -0.49057209 </v>
   <v>       0.26773979      -0.34247860       0.39230630 </v>
   <v>      -0.26187979       0.14801849       0.44522965 </v>
   <v>      -0.14187766       0.20729710       0.49517595 </v>
   <v>       0.36535081      -0.34722950       0.34222079 </v>
   <v>       0.17156766       0.25851813      -0.46928076 </v>
   <v>       0.23024095      -0.19221563       0.45196954 </v>
   <v>      -0.02295437       0.36979885      -0.45294998 </v>
   <v>      -0.29616144       0.01239230       0.47018456 </v>
   <v>       0.27537441       0.44737517       0.36737583 </v>
   <v>       0.07393664      -0.28063408      -0.35389665 </v>
   <v>      -0.08493787      -0.18925519       0.49625454 </v>
   <v>      -0.42731074       0.31205206       0.32009968 </v>
   <v>      -0.08222865       0.25122216      -0.49175485 </v>
   <v>      -0.06472949       0.47469810       0.45410146 </v>
   <v>       0.08757125      -0.31985064      -0.43229833 </v>
   <v>      -0.19403592       0.31159644       0.38329286 </v>
   <v>      -0.41650714       0.35944742       0.30592717 </v>
   <v>       0.03391306       0.39426794      -0.34862326 </v>
   <v>      -0.02631233       0.23704184      -0.40146994 </v>
   <v>       0.06100377      -0.31941566      -0.37600575 </v>
   <v>      -0.46200909       0.08288136       0.40450275 </v>
   <v>       0.03458492       0.34796978      -0.36679145 </v>
   <v>      -0.20666030       0.26246277       0.37345652 </v>
   <v>      -0.48000969       0.04074863       0.42170307 </v>
   <v>       0.23800967       0.21369500       0.42990119 </v>
   <v>       0.20353331      -0.11411481       0.47053363 </v>
   <v>       0.06555091      -0.39686299      -0.45786339 </v>
   <v>      -0.12042281      -0.03270010      -0.48806577 </v>
   <v>       0.17751724       0.40515232       0.40527312 </v>
   <v>      -0.34503478      -0.01941862       0.37922825 </v>
   <v>       0.07823286      -0.45083113       0.49468762 </v>
   <v>       0.23744622       0.00843462      -0.49208044 </v>
   <v>      -0.08900395      -0.09976856       0.48317962 </v>
   <v>       0.37300515       0.18609091       0.34795342 </v>
   <v>       0.20829566      -0.21617183       0.39536010 </v>
   <v>       0.20850083      -0.30141628       0.37179454 </v>
   <v>      -0.13087273       0.16322721       0.44227833 </v>
   <v>       0.10475576       0.25025850      -0.48215948 </v>
   <v>       0.07979875       0.33507297      -0.48769816 </v>
   <v>       0.06595370      -0.24862645      -0.46435399 </v>
   <v>      -0.02170991      -0.21657250       0.47679564 </v>
   <v>      -0.37426734       0.01865672       0.37523120 </v>
   <v>       0.02307473       0.38563139      -0.49775449 </v>
   <v>      -0.07644550       0.00429262      -0.44687879 </v>
   <v>       0.15143775      -0.35140811       0.38895836 </v>
   <v>       0.34154688       0.21076958       0.33077276 </v>
   <v>       0.03890126       0.47428579       0.49910875 </v>
   <v>       0.19846065      -0.03233390       0.46399069 </v>
   <v>      -0.00672538       0.36319734       0.44840298 </v>
   <v>       0.07283499       0.20399901      -0.43789988 </v>
   <v>       0.00907918       0.16981973      -0.42774213 </v>
   <v>      -0.13430399       0.02236080       0.46703846 </v>
   <v>       0.06133801      -0.40794442       0.44225348 </v>
   <v>       0.21190758       0.19963819       0.37359659 </v>
   <v>      -0.01673062       0.12700296      -0.47889805 </v>
   <v>       0.13935762      -0.45684248       0.35192946 </v>
   <v>       0.24120334       0.25126210       0.32934297 </v>
   <v>      -0.07357232       0.33385283       0.35633493 </v>
   <v>       0.00762132       0.08841149      -0.39692028 </v>
   <v>       0.24420236      -0.28938605       0.29432688 </v>
   <v>       0.07629334      -0.25878987       0.43588102 </v>
   <v>       0.22218344      -0.01503494       0.40794682 </v>
   <v>       0.08322528      -0.33839583       0.40641308 </v>
   <v>       0.09491131       0.20420671       0.46708233 </v>
   <v>       0.13373852       0.41550277       0.35687228 </v>
   <v>       0.20737430      -0.29641108       0.31036906 </v>
   <v>       0.04814566      -0.21177904       0.48263019 </v>
   <v>       0.21637369       0.29303533       0.31923033 </v>
   <v>      -0.11109364       0.08059287       0.42420019 </v>
   <v>       0.07548726      -0.12800932       0.48299416 </v>
   <v>       0.13279973      -0.00646148       0.47948708 </v>
   <v>       0.13254706       0.49871998       0.33227266 </v>
   <v>      -0.03696346       0.35837918       0.35125762 </v>
   <v>      -0.01369558       0.04517872      -0.44948548 </v>
   <v>      -0.17946160       0.05019053       0.36899263 </v>
   <v>       0.14242656       0.21430937       0.37597224 </v>
   <v>       0.22638085       0.11136469       0.35811888 </v>
   <v>       0.01470021       0.33937414       0.39108141 </v>
   <v>       0.22309457       0.03533871       0.39320502 </v>
   <v>       0.00476455      -0.34101798       0.35777830 </v>
   <v>       0.15514768       0.35870713       0.31056042 </v>
   <v>       0.06962669       0.39128964       0.37637178 </v>
   <v>      -0.13845389       0.05926472       0.36920633 </v>
   <v>       0.03338690      -0.01279114      -0.47127570 </v>
   <v>       0.06920979      -0.04595697       0.48050551 </v>
   <v>       0.08345253       0.19435595       0.40698087 </v>
   <v>      -0.04142180       0.08242692       0.41695300 </v>
   <v>       0.15750105       0.38499010       0.27898292 </v>
   <v>       0.22271586       0.10094280       0.32273843 </v>
   <v>       0.03138539       0.25047370       0.38899188 </v>
   <v>       0.04607407      -0.34246944       0.35417863 </v>
   <v>       0.03453641      -0.02486837       0.42940526 </v>
   <v>       0.06864615       0.10744929       0.39511073 </v>
   <v>       0.01708949       0.04566591       0.39361135 </v>
   <v>      -0.02546089      -0.00120753       0.32530279 </v>
   <v>       0.01176032       0.01759777       0.33524376 </v>
  </varray>
 </structure>
 <varray name="primitive_index" >
  <v type="int" >        1 </v>
  <v type="int" >       49 </v>
  <v type="int" >        2 </v>
  <v type="int" >        3 </v>
  <v type="int" >      276 </v>
  <v type="int" >       52 </v>
  <v type="int" >       53 </v>
  <v type="int" >       51 </v>
  <v type="int" >       50 </v>
  <v type="int" >       54 </v>
  <v type="int" >        4 </v>
  <v type="int" >       55 </v>
  <v type="int" >       77 </v>
  <v type="int" >      210 </v>
  <v type="int" >      124 </v>
  <v type="int" >       56 </v>
  <v type="int" >      200 </v>
  <v type="int" >       15 </v>
  <v type="int" >      252 </v>
  <v type="int" >      103 </v>
  <v type="int" >       85 </v>
  <v type="int" >      275 </v>
  <v type="int" >      217 </v>
  <v type="int" >      142 </v>
  <v type="int" >      127 </v>
  <v type="int" >      133 </v>
  <v type="int" >      271 </v>
  <v type="int" >      166 </v>
  <v type="int" >      129 </v>
  <v type="int" >      112 </v>
  <v type="int" >      206 </v>
  <v type="int" >      204 </v>
  <v type="int" >       34 </v>
  <v type="int" >      233 </v>
  <v type="int" >      245 </v>
  <v type="int" >      111 </v>
  <v type="int" >      264 </v>
  <v type="int" >       20 </v>
  <v type="int" >      106 </v>
  <v type="int" >       84 </v>
  <v type="int" >       99 </v>
  <v type="int" >      170 </v>
  <v type="int" >      101 </v>
  <v type="int" >      266 </v>
  <v type="int" >      212 </v>
  <v type="int" >      158 </v>
  <v type="int" >      183 </v>
  <v type="int" >       47 </v>
  <v type="int" >      171 </v>
  <v type="int" >      236 </v>
  <v type="int" >      221 </v>
  <v type="int" >      100 </v>
  <v type="int" >       90 </v>
  <v type="int" >       59 </v>
  <v type="int" >      228 </v>
  <v type="int" >      201 </v>
  <v type="int" >      154 </v>
  <v type="int" >       33 </v>
  <v type="int" >      151 </v>
  <v type="int" >      203 </v>
  <v type="int" >      255 </v>
  <v type="int" >      116 </v>
  <v type="int" >       26 </v>
  <v type="int" >      199 </v>
  <v type="int" >       16 </v>
  <v type="int" >      104 </v>
  <v type="int" >      184 </v>
  <v type="int" >       75 </v>
  <v type="int" >      225 </v>
  <v type="int" >      263 </v>
  <v type="int" >       98 </v>
  <v type="int" >      163 </v>
  <v type="int" >      164 </v>
  <v type="int" >      146 </v>
  <v type="int" >       71 </v>
  <v type="int" >      234 </v>
  <v type="int" >      227 </v>
  <v type="int" >      202 </v>
  <v type="int" >      243 </v>
  <v type="int" >      253 </v>
  <v type="int" >        5 </v>
  <v type="int" >      148 </v>
  <v type="int" >       83 </v>
  <v type="int" >      178 </v>
  <v type="int" >      261 </v>
  <v type="int" >      192 </v>
  <v type="int" >      131 </v>
  <v type="int" >       14 </v>
  <v type="int" >      161 </v>
  <v type="int" >      137 </v>
  <v type="int" >      260 </v>
  <v type="int" >      167 </v>
  <v type="int" >       93 </v>
  <v type="int" >      209 </v>
  <v type="int" >      259 </v>
  <v type="int" >      130 </v>
  <v type="int" >       37 </v>
  <v type="int" >       57 </v>
  <v type="int" >      121 </v>
  <v type="int" >      105 </v>
  <v type="int" >       68 </v>
  <v type="int" >       48 </v>
  <v type="int" >      118 </v>
  <v type="int" >       36 </v>
  <v type="int" >      240 </v>
  <v type="int" >      155 </v>
  <v type="int" >      230 </v>
  <v type="int" >       58 </v>
  <v type="int" >       19 </v>
  <v type="int" >      270 </v>
  <v type="int" >       21 </v>
  <v type="int" >      147 </v>
  <v type="int" >      229 </v>
  <v type="int" >       97 </v>
  <v type="int" >      218 </v>
  <v type="int" >      205 </v>
  <v type="int" >      173 </v>
  <v type="int" >      257 </v>
  <v type="int" >      213 </v>
  <v type="int" >       69 </v>
  <v type="int" >      250 </v>
  <v type="int" >       62 </v>
  <v type="int" >      174 </v>
  <v type="int" >      107 </v>
  <v type="int" >      135 </v>
  <v type="int" >      231 </v>
  <v type="int" >       88 </v>
  <v type="int" >      175 </v>
  <v type="int" >      251 </v>
  <v type="int" >      110 </v>
  <v type="int" >       65 </v>
  <v type="int" >      156 </v>
  <v type="int" >      265 </v>
  <v type="int" >       96 </v>
  <v type="int" >      238 </v>
  <v type="int" >      169 </v>
  <v type="int" >      134 </v>
  <v type="int" >      185 </v>
  <v type="int" >      274 </v>
  <v type="int" >       67 </v>
  <v type="int" >      258 </v>
  <v type="int" >      119 </v>
  <v type="int" >       44 </v>
  <v type="int" >      198 </v>
  <v type="int" >       25 </v>
  <v type="int" >      122 </v>
  <v type="int" >       73 </v>
  <v type="int" >       22 </v>
  <v type="int" >       35 </v>
  <v type="int" >      220 </v>
  <v type="int" >      113 </v>
  <v type="int" >       74 </v>
  <v type="int" >      272 </v>
  <v type="int" >       11 </v>
  <v type="int" >       64 </v>
  <v type="int" >       95 </v>
  <v type="int" >       45 </v>
  <v type="int" >       86 </v>
  <v type="int" >       23 </v>
  <v type="int" >       43 </v>
  <v type="int" >      223 </v>
  <v type="int" >      176 </v>
  <v type="int" >      128 </v>
  <v type="int" >      109 </v>
  <v type="int" >      179 </v>
  <v type="int" >      262 </v>
  <v type="int" >      120 </v>
  <v type="int" >      239 </v>
  <v type="int" >       60 </v>
  <v type="int" >       41 </v>
  <v type="int" >      180 </v>
  <v type="int" >       40 </v>
  <v type="int" >      224 </v>
  <v type="int" >       38 </v>
  <v type="int" >      140 </v>
  <v type="int" >      208 </v>
  <v type="int" >      241 </v>
  <v type="int" >      177 </v>
  <v type="int" >      246 </v>
  <v type="int" >       12 </v>
  <v type="int" >      150 </v>
  <v type="int" >      181 </v>
  <v type="int" >      235 </v>
  <v type="int" >      195 </v>
  <v type="int" >      145 </v>
  <v type="int" >      244 </v>
  <v type="int" >      168 </v>
  <v type="int" >      165 </v>
  <v type="int" >      194 </v>
  <v type="int" >       46 </v>
  <v type="int" >      219 </v>
  <v type="int" >      191 </v>
  <v type="int" >      186 </v>
  <v type="int" >       18 </v>
  <v type="int" >      273 </v>
  <v type="int" >      114 </v>
  <v type="int" >       13 </v>
  <v type="int" >       17 </v>
  <v type="int" >       66 </v>
  <v type="int" >      138 </v>
  <v type="int" >      141 </v>
  <v type="int" >      190 </v>
  <v type="int" >        7 </v>
  <v type="int" >       27 </v>
  <v type="int" >      152 </v>
  <v type="int" >      136 </v>
  <v type="int" >      108 </v>
  <v type="int" >      232 </v>
  <v type="int" >       70 </v>
  <v type="int" >      125 </v>
  <v type="int" >      269 </v>
  <v type="int" >      115 </v>
  <v type="int" >       91 </v>
  <v type="int" >      189 </v>
  <v type="int" >       81 </v>
  <v type="int" >      254 </v>
  <v type="int" >       87 </v>
  <v type="int" >      248 </v>
  <v type="int" >      160 </v>
  <v type="int" >      162 </v>
  <v type="int" >      102 </v>
  <v type="int" >        9 </v>
  <v type="int" >      242 </v>
  <v type="int" >      117 </v>
  <v type="int" >      149 </v>
  <v type="int" >       31 </v>
  <v type="int" >       82 </v>
  <v type="int" >      226 </v>
  <v type="int" >      132 </v>
  <v type="int" >      153 </v>
  <v type="int" >      216 </v>
  <v type="int" >       72 </v>
  <v type="int" >       92 </v>
  <v type="int" >      268 </v>
  <v type="int" >       76 </v>
  <v type="int" >       42 </v>
  <v type="int" >      197 </v>
  <v type="int" >        6 </v>
  <v type="int" >      207 </v>
  <v type="int" >       39 </v>
  <v type="int" >      126 </v>
  <v type="int" >      182 </v>
  <v type="int" >      211 </v>
  <v type="int" >      144 </v>
  <v type="int" >      237 </v>
  <v type="int" >      193 </v>
  <v type="int" >      249 </v>
  <v type="int" >       29 </v>
  <v type="int" >      247 </v>
  <v type="int" >       94 </v>
  <v type="int" >      159 </v>
  <v type="int" >      187 </v>
  <v type="int" >       79 </v>
  <v type="int" >      256 </v>
  <v type="int" >       10 </v>
  <v type="int" >       89 </v>
  <v type="int" >      196 </v>
  <v type="int" >      215 </v>
  <v type="int" >       28 </v>
  <v type="int" >       24 </v>
  <v type="int" >      188 </v>
  <v type="int" >       80 </v>
  <v type="int" >      143 </v>
  <v type="int" >       61 </v>
  <v type="int" >      267 </v>
  <v type="int" >      222 </v>
  <v type="int" >      172 </v>
  <v type="int" >       30 </v>
  <v type="int" >       32 </v>
  <v type="int" >      157 </v>
  <v type="int" >      139 </v>
  <v type="int" >       78 </v>
  <v type="int" >       63 </v>
  <v type="int" >      214 </v>
  <v type="int" >        8 </v>
  <v type="int" >      123 </v>
 </varray>
 <kpoints>
  <generation param="Monkhorst-Pack">
   <v type="int" name="divisions">       3        3        1 </v>
   <v name="usershift">      0.00000000       0.00000000       0.00000000 </v>
   <v name="genvec1">      0.33333333       0.00000000       0.00000000 </v>
   <v name="genvec2">      0.00000000       0.33333333       0.00000000 </v>
   <v name="genvec3">      0.00000000       0.00000000       1.00000000 </v>
   <v name="shift">      0.00000000       0.00000000       0.00000000 </v>
  </generation>
  <varray name="kpointlist" >
   <v>       0.00000000       0.00000000       0.00000000 </v>
   <v>       0.33333333       0.00000000       0.00000000 </v>
   <v>       0.00000000       0.33333333       0.00000000 </v>
   <v>       0.33333333       0.33333333       0.00000000 </v>
   <v>      -0.33333333       0.33333333       0.00000000 </v>
  </varray>
  <varray name="weights" >
   <v>       0.11111111 </v>
   <v>       0.22222222 </v>
   <v>       0.22222222 </v>
   <v>       0.22222222 </v>
   <v>       0.22222222 </v>
  </varray>
 </kpoints>
 <parameters>
  <separator name="general" >
   <i type="string" name="SYSTEM">unknown system</i>
   <i type="logical" name="LCOMPAT"> F  </i>
  </separator>
  <separator name="electronic" >
   <i type="string" name="PREC">normal</i>
   <i name="ENMAX">    500.00000000</i>
   <i name="ENAUG">    644.87300000</i>
   <i name="EDIFF">      0.00000010</i>
   <i type="int" name="IALGO">    68</i>
   <i type="int" name="IWAVPR">    11</i>
   <i type="int" name="NBANDS">   768</i>
   <i name="NELECT">   1258.00000000</i>
   <i type="int" name="TURBO">     0</i>
   <i type="int" name="IRESTART">     0</i>
   <i type="int" name="NREBOOT">     0</i>
   <i type="int" name="NMIN">     0</i>
   <i name="EREF">      0.00000000</i>
   <separator name="electronic smearing" >
    <i type="int" name="ISMEAR">     0</i>
    <i name="SIGMA">      0.20000000</i>
    <i name="KSPACING">      0.50000000</i>
    <i type="logical" name="KGAMMA"> T  </i>
   </separator>
   <separator name="electronic projectors" >
    <i type="logical" name="LREAL"> T  </i>
    <v name="ROPT">     -0.00050000     -0.00050000     -0.00050000     -0.00050000     -0.00050000</v>
    <i type="int" name="LMAXPAW">  -100</i>
    <i type="int" name="LMAXMIX">     2</i>
    <i type="logical" name="NLSPLINE"> F  </i>
   </separator>
   <separator name="electronic startup" >
    <i type="int" name="ISTART">     0</i>
    <i type="int" name="ICHARG">     2</i>
    <i type="int" name="INIWAV">     1</i>
   </separator>
   <separator name="electronic spin" >
    <i type="int" name="ISPIN">     1</i>
    <i type="logical" name="LNONCOLLINEAR"> F  </i>
    <v name="MAGMOM">      1.00000000      1.00000000      1.00000000      1.00000000      1.00000000      1.00000000      1.00000000      1.00000000      1.00000000      1.00000000      1.00000000      1.00000000      1.00000000      1.00000000      1.00000000      1.00000000      1.00000000      1.00000000      1.00000000      1.00000000
      1.00000000      1.00000000      1.00000000      1.00000000      1.00000000      1.00000000      1.00000000      1.00000000      1.00000000      1.00000000      1.00000000      1.00000000      1.00000000      1.00000000      1.00000000      1.00000000      1.00000000      1.00000000      1.00000000      1.00000000
      1.00000000      1.00000000      1.00000000      1.00000000      1.00000000      1.00000000      1.00000000      1.00000000      1.00000000      1.00000000      1.00000000      1.00000000      1.00000000      1.00000000      1.00000000      1.00000000      1.00000000      1.00000000      1.00000000      1.00000000
      1.00000000      1.00000000      1.00000000      1.00000000      1.00000000      1.00000000      1.00000000      1.00000000      1.00000000      1.00000000      1.00000000      1.00000000      1.00000000      1.00000000      1.00000000      1.00000000      1.00000000      1.00000000      1.00000000      1.00000000
      1.00000000      1.00000000      1.00000000      1.00000000      1.00000000      1.00000000      1.00000000      1.00000000      1.00000000      1.00000000      1.00000000      1.00000000      1.00000000      1.00000000      1.00000000      1.00000000      1.00000000      1.00000000      1.00000000      1.00000000
      1.00000000      1.00000000      1.00000000      1.00000000      1.00000000      1.00000000      1.00000000      1.00000000      1.00000000      1.00000000      1.00000000      1.00000000      1.00000000      1.00000000      1.00000000      1.00000000      1.00000000      1.00000000      1.00000000      1.00000000
      1.00000000      1.00000000      1.00000000      1.00000000      1.00000000      1.00000000      1.00000000      1.00000000      1.00000000      1.00000000      1.00000000      1.00000000      1.00000000      1.00000000      1.00000000      1.00000000      1.00000000      1.00000000      1.00000000      1.00000000
      1.00000000      1.00000000      1.00000000      1.00000000      1.00000000      1.00000000      1.00000000      1.00000000      1.00000000      1.00000000      1.00000000      1.00000000      1.00000000      1.00000000      1.00000000      1.00000000      1.00000000      1.00000000      1.00000000      1.00000000
      1.00000000      1.00000000      1.00000000      1.00000000      1.00000000      1.00000000      1.00000000      1.00000000      1.00000000      1.00000000      1.00000000      1.00000000      1.00000000      1.00000000      1.00000000      1.00000000      1.00000000      1.00000000      1.00000000      1.00000000
      1.00000000      1.00000000      1.00000000      1.00000000      1.00000000      1.00000000      1.00000000      1.00000000      1.00000000      1.00000000      1.00000000      1.00000000      1.00000000      1.00000000      1.00000000      1.00000000      1.00000000      1.00000000      1.00000000      1.00000000
      1.00000000      1.00000000      1.00000000      1.00000000      1.00000000      1.00000000      1.00000000      1.00000000      1.00000000      1.00000000      1.00000000      1.00000000      1.00000000      1.00000000      1.00000000      1.00000000      1.00000000      1.00000000      1.00000000      1.00000000
      1.00000000      1.00000000      1.00000000      1.00000000      1.00000000      1.00000000      1.00000000      1.00000000      1.00000000      1.00000000      1.00000000      1.00000000      1.00000000      1.00000000      1.00000000      1.00000000      1.00000000      1.00000000      1.00000000      1.00000000
      1.00000000      1.00000000      1.00000000      1.00000000      1.00000000      1.00000000      1.00000000      1.00000000      1.00000000      1.00000000      1.00000000      1.00000000      1.00000000      1.00000000      1.00000000      1.00000000      1.00000000      1.00000000      1.00000000      1.00000000
      1.00000000      1.00000000      1.00000000      1.00000000      1.00000000      1.00000000      1.00000000      1.00000000      1.00000000      1.00000000      1.00000000      1.00000000      1.00000000      1.00000000      1.00000000      1.00000000</v>
    <i name="NUPDOWN">     -1.00000000</i>
    <i type="logical" name="LSORBIT"> F  </i>
    <v name="SAXIS">      0.00000000      0.00000000      1.00000000</v>
    <i type="logical" name="LSPIRAL"> F  </i>
    <v name="QSPIRAL">      0.00000000      0.00000000      0.00000000</v>
    <i type="logical" name="LZEROZ"> F  </i>
   </separator>
   <separator name="electronic exchange-correlation" >
    <i type="logical" name="LASPH"> T  </i>
    <i type="logical" name="LMETAGGA"> F  </i>
   </separator>
   <separator name="electronic convergence" >
    <i type="int" name="NELM">    60</i>
    <i type="int" name="NELMDL">     0</i>
    <i type="int" name="NELMIN">     2</i>
    <i name="ENINI">    500.00000000</i>
    <separator name="electronic convergence detail" >
     <i type="logical" name="LDIAG"> T  </i>
     <i type="logical" name="LSUBROT"> F  </i>
     <i name="WEIMIN">      0.00100000</i>
     <i name="EBREAK">      0.00000000</i>
     <i name="DEPER">      0.30000000</i>
     <i type="int" name="NRMM">     4</i>
     <i name="TIME">      0.40000000</i>
    </separator>
   </separator>
   <separator name="electronic mixer" >
    <i name="AMIX">      0.40000000</i>
    <i name="BMIX">      1.00000000</i>
    <i name="AMIN">      0.10000000</i>
    <i name="AMIX_MAG">      1.60000000</i>
    <i name="BMIX_MAG">      1.00000000</i>
    <separator name="electronic mixer details" >
     <i type="int" name="IMIX">     4</i>
     <i type="logical" name="MIXFIRST"> F  </i>
     <i type="int" name="MAXMIX">   -45</i>
     <i name="WC">    100.00000000</i>
     <i type="int" name="INIMIX">     1</i>
     <i type="int" name="MIXPRE">     1</i>
     <i type="int" name="MREMOVE">     5</i>
    </separator>
   </separator>
   <separator name="electronic dipolcorrection" >
    <i type="logical" name="LDIPOL"> T  </i>
    <i type="logical" name="LMONO"> F  </i>
    <i type="int" name="IDIPOL">     3</i>
    <i name="EPSILON">      1.00000000</i>
    <v name="DIPOL">     11.12130000      8.98370000     13.73010000</v>
    <i name="EFIELD">      0.00000000</i>
   </separator>
  </separator>
  <separator name="grids" >
   <i type="int" name="NGX">   128</i>
   <i type="int" name="NGY">   100</i>
   <i type="int" name="NGZ">   150</i>
   <i type="int" name="NGXF">   256</i>
   <i type="int" name="NGYF">   200</i>
   <i type="int" name="NGZF">   300</i>
   <i type="logical" name="ADDGRID"> F  </i>
  </separator>
  <separator name="ionic" >
   <i type="int" name="NSW">   200</i>
   <i type="int" name="IBRION">     3</i>
   <i type="int" name="MDALGO">     0</i>
   <i type="int" name="ISIF">     0</i>
   <i name="PSTRESS">      0.00000000</i>
   <i name="EDIFFG">     -0.05000000</i>
   <i type="int" name="NFREE">     0</i>
   <i name="POTIM">      0.00000000</i>
   <i name="SMASS">     -3.00000000</i>
   <i name="SCALEE">      1.00000000</i>
  </separator>
  <separator name="ionic md" >
   <i name="TEBEG">      0.00010000</i>
   <i name="TEEND">      0.00010000</i>
   <i type="int" name="NBLOCK">     1</i>
   <i type="int" name="KBLOCK">   200</i>
   <i type="int" name="NPACO">   256</i>
   <i name="APACO">     16.00000000</i>
  </separator>
  <separator name="symmetry" >
   <i type="int" name="ISYM">     2</i>
   <i name="SYMPREC">      0.00001000</i>
  </separator>
  <separator name="dos" >
   <i type="int" name="LORBIT">     0</i>
   <v name="RWIGS">     -1.00000000     -1.00000000     -1.00000000     -1.00000000     -1.00000000</v>
   <i type="int" name="NEDOS">   301</i>
   <i name="EMIN">     10.00000000</i>
   <i name="EMAX">    -10.00000000</i>
   <i name="EFERMI">      0.00000000</i>
  </separator>
  <separator name="writing" >
   <i type="int" name="NWRITE">     2</i>
   <i type="logical" name="LWAVE"> F  </i>
   <i type="logical" name="LDOWNSAMPLE"> F  </i>
   <i type="logical" name="LCHARG"> F  </i>
   <i type="logical" name="LPARD"> F  </i>
   <i type="logical" name="LVTOT"> F  </i>
   <i type="logical" name="LVHAR"> F  </i>
   <i type="logical" name="LELF"> F  </i>
   <i type="logical" name="LOPTICS"> F  </i>
   <v name="STM">      0.00000000      0.00000000      0.00000000      0.00000000      0.00000000      0.00000000      0.00000000</v>
  </separator>
  <separator name="performance" >
   <i type="int" name="NPAR">    16</i>
   <i type="int" name="NSIM">     4</i>
   <i type="int" name="NBLK">    -1</i>
   <i type="logical" name="LPLANE"> T  </i>
   <i type="logical" name="LSCALAPACK"> T  </i>
   <i type="logical" name="LSCAAWARE"> F  </i>
   <i type="logical" name="LSCALU"> F  </i>
   <i type="logical" name="LASYNC"> F  </i>
   <i type="logical" name="LORBITALREAL"> F  </i>
  </separator>
  <separator name="miscellaneous" >
   <i type="int" name="IDIOT">     3</i>
   <i type="int" name="ISPECIAL">     0</i>
   <i type="logical" name="LMUSIC"> F  </i>
   <v name="POMASS">     12.01100000      1.00000000     16.00000000     28.08500000    183.85000000</v>
   <v name="DARWINR">      0.00000000      0.00000000      0.00000000      0.00000000      0.00000000</v>
   <v name="DARWINV">      1.00000000      1.00000000      1.00000000      1.00000000      1.00000000</v>
   <i type="logical" name="LCORR"> T  </i>
  </separator>
  <i type="logical" name="GGA_COMPAT"> T  </i>
  <i type="logical" name="LBERRY"> F  </i>
  <i type="int" name="ICORELEVEL">     0</i>
  <i type="logical" name="LDAU"> F  </i>
  <i type="int" name="I_CONSTRAINED_M">     0</i>
  <separator name="electronic exchange-correlation" >
   <i type="string" name="GGA">RP</i>
   <i type="int" name="VOSKOWN">     0</i>
   <i type="logical" name="LHFCALC"> F  </i>
   <i type="string" name="PRECFOCK"></i>
   <i type="logical" name="LSYMGRAD"> F  </i>
   <i type="logical" name="LHFONE"> F  </i>
   <i type="logical" name="LRHFCALC"> F  </i>
   <i type="logical" name="LTHOMAS"> F  </i>
   <i type="logical" name="LMODELHF"> F  </i>
   <i name="ENCUT4O">     -1.00000000</i>
   <i type="int" name="EXXOEP">     0</i>
   <i type="int" name="FOURORBIT">     0</i>
   <i name="AEXX">      0.00000000</i>
   <i name="HFALPHA">      0.00000000</i>
   <i name="MCALPHA">      0.00000000</i>
   <i name="ALDAX">      1.00000000</i>
   <i name="AGGAX">      1.00000000</i>
   <i name="ALDAC">      1.00000000</i>
   <i name="AGGAC">      1.00000000</i>
   <i type="int" name="NKREDX">     1</i>
   <i type="int" name="NKREDY">     1</i>
   <i type="int" name="NKREDZ">     1</i>
   <i type="logical" name="SHIFTRED"> F  </i>
   <i type="logical" name="ODDONLY"> F  </i>
   <i type="logical" name="EVENONLY"> F  </i>
   <i type="int" name="LMAXFOCK">     0</i>
   <i type="int" name="NMAXFOCKAE">     0</i>
   <i type="logical" name="LFOCKAEDFT"> F  </i>
   <i name="HFSCREEN">      0.00000000</i>
   <i name="HFSCREENC">      0.00000000</i>
   <i type="int" name="NBANDSGWLOW">     0</i>
  </separator>
  <separator name="vdW DFT" >
   <i type="logical" name="LUSE_VDW"> F  </i>
   <i name="Zab_VDW">     -0.84910000</i>
   <i name="PARAM1">      0.12340000</i>
   <i name="PARAM2">      1.00000000</i>
   <i name="PARAM3">      0.00000000</i>
  </separator>
  <separator name="model GW" >
   <i type="int" name="MODEL_GW">     0</i>
   <i name="MODEL_EPS0">     24.79357146</i>
   <i name="MODEL_ALPHA">      1.00000000</i>
  </separator>
  <separator name="linear response parameters" >
   <i type="logical" name="LEPSILON"> F  </i>
   <i type="logical" name="LRPA"> F  </i>
   <i type="logical" name="LNABLA"> F  </i>
   <i type="logical" name="LVEL"> F  </i>
   <i type="int" name="KINTER">     0</i>
   <i name="CSHIFT">      0.10000000</i>
   <i name="OMEGAMAX">     -1.00000000</i>
   <i name="DEG_THRESHOLD">      0.00200000</i>
   <i name="RTIME">     -0.10000000</i>
   <i name="WPLASMAI">      0.00000000</i>
   <v name="DFIELD">      0.00000000      0.00000000      0.00000000</v>
   <v name="WPLASMA">      0.00000000      0.00000000      0.00000000      0.00000000      0.00000000      0.00000000      0.00000000      0.00000000      0.00000000</v>
  </separator>
  <separator name="orbital magnetization" >
   <i type="logical" name="NUCIND"> F  </i>
   <v name="MAGPOS">      0.00000000      0.00000000      0.00000000</v>
   <i type="logical" name="LNICSALL"> T  </i>
   <i type="logical" name="ORBITALMAG"> F  </i>
   <i type="logical" name="LMAGBLOCH"> F  </i>
   <i type="logical" name="LCHIMAG"> F  </i>
   <i type="logical" name="LGAUGE"> T  </i>
   <i type="int" name="MAGATOM">     0</i>
   <v name="MAGDIPOL">      0.00000000      0.00000000      0.00000000</v>
   <v name="AVECCONST">      0.00000000      0.00000000      0.00000000</v>
  </separator>
  <separator name="response functions" >
   <i type="logical" name="LADDER"> F  </i>
   <i type="logical" name="LRPAFORCE"> F  </i>
   <i type="logical" name="LFXC"> F  </i>
   <i type="logical" name="LHARTREE"> T  </i>
   <i type="int" name="IBSE">     0</i>
   <v type="int" name="KPOINT">    -1     0     0     0</v>
   <i type="logical" name="LTCTE"> F  </i>
   <i type="logical" name="LTETE"> F  </i>
   <i type="logical" name="LTRIPLET"> F  </i>
   <i type="logical" name="LFXCEPS"> F  </i>
   <i type="logical" name="LFXHEG"> F  </i>
   <i type="int" name="NATURALO">     2</i>
   <i type="logical" name="L2ORDER"> F  </i>
   <i type="logical" name="LMP2LT"> F  </i>
   <i type="logical" name="LUSEW"> F  </i>
   <i name="ENCUTGW">     -2.00000000</i>
   <i name="ENCUTGWSOFT">     -2.00000000</i>
   <i name="ENCUTLF">     -1.00000000</i>
   <i type="int" name="LMAXMP2">    -1</i>
   <i name="SCISSOR">      0.00000000</i>
   <i type="int" name="NOMEGA">     0</i>
   <i type="int" name="NOMEGAR">     0</i>
   <i type="int" name="NBANDSGW">    -1</i>
   <i type="int" name="NBANDSO">    -1</i>
   <i type="int" name="NBANDSV">    -1</i>
   <i type="int" name="NELM">     1</i>
   <i type="int" name="NELMHF">     1</i>
   <i type="int" name="DIM">     3</i>
   <i type="int" name="ANTIRES">     0</i>
   <i name="OMEGAMAX">    -30.00000000</i>
   <i name="OMEGAMIN">    -30.00000000</i>
   <i name="OMEGATL">   -200.00000000</i>
   <i type="int" name="OMEGAGRID">   140</i>
   <i name="CSHIFT">     -0.10000000</i>
   <i type="logical" name="SELFENERGY"> F  </i>
   <i type="logical" name="LSPECTRAL"> F  </i>
   <i type="logical" name="LSPECTRALGW"> F  </i>
   <i type="logical" name="LSINGLES"> F  </i>
   <i type="logical" name="LFERMIGW"> F  </i>
   <i type="logical" name="ODDONLYGW"> F  </i>
   <i type="logical" name="EVENONLYGW"> F  </i>
   <i type="int" name="NKREDLFX">     1</i>
   <i type="int" name="NKREDLFY">     1</i>
   <i type="int" name="NKREDLFZ">     1</i>
   <i type="int" name="MAXMEM">  2800</i>
   <i type="int" name="TELESCOPE">     0</i>
   <i type="int" name="TAUPAR">     1</i>
   <i type="int" name="OMEGAPAR">    -1</i>
   <i name="LAMBDA">      1.00000000</i>
  </separator>
  <separator name="External order field" >
   <i name="OFIELD_KAPPA">      0.00000000</i>
   <v name="OFIELD_K">      0.00000000      0.00000000      0.00000000</v>
   <i name="OFIELD_Q6_NEAR">      0.00000000</i>
   <i name="OFIELD_Q6_FAR">      0.00000000</i>
   <i name="OFIELD_A">      0.00000000</i>
  </separator>
 </parameters>
 <atominfo>
  <atoms>     276 </atoms>
  <types>       5 </types>
  <array name="atoms" >
   <dimension dim="1">ion</dimension>
   <field type="string">element</field>
   <field type="int">atomtype</field>
   <set>
    <rc><c>C </c><c>   1</c></rc>
    <rc><c>C </c><c>   1</c></rc>
    <rc><c>C </c><c>   1</c></rc>
    <rc><c>C </c><c>   1</c></rc>
    <rc><c>H </c><c>   2</c></rc>
    <rc><c>H </c><c>   2</c></rc>
    <rc><c>H </c><c>   2</c></rc>
    <rc><c>H </c><c>   2</c></rc>
    <rc><c>H </c><c>   2</c></rc>
    <rc><c>H </c><c>   2</c></rc>
    <rc><c>H </c><c>   2</c></rc>
    <rc><c>H </c><c>   2</c></rc>
    <rc><c>H </c><c>   2</c></rc>
    <rc><c>H </c><c>   2</c></rc>
    <rc><c>H </c><c>   2</c></rc>
    <rc><c>H </c><c>   2</c></rc>
    <rc><c>H </c><c>   2</c></rc>
    <rc><c>H </c><c>   2</c></rc>
    <rc><c>H </c><c>   2</c></rc>
    <rc><c>H </c><c>   2</c></rc>
    <rc><c>H </c><c>   2</c></rc>
    <rc><c>H </c><c>   2</c></rc>
    <rc><c>H </c><c>   2</c></rc>
    <rc><c>H </c><c>   2</c></rc>
    <rc><c>H </c><c>   2</c></rc>
    <rc><c>H </c><c>   2</c></rc>
    <rc><c>H </c><c>   2</c></rc>
    <rc><c>H </c><c>   2</c></rc>
    <rc><c>H </c><c>   2</c></rc>
    <rc><c>H </c><c>   2</c></rc>
    <rc><c>H </c><c>   2</c></rc>
    <rc><c>H </c><c>   2</c></rc>
    <rc><c>H </c><c>   2</c></rc>
    <rc><c>H </c><c>   2</c></rc>
    <rc><c>H </c><c>   2</c></rc>
    <rc><c>H </c><c>   2</c></rc>
    <rc><c>H </c><c>   2</c></rc>
    <rc><c>H </c><c>   2</c></rc>
    <rc><c>H </c><c>   2</c></rc>
    <rc><c>H </c><c>   2</c></rc>
    <rc><c>H </c><c>   2</c></rc>
    <rc><c>H </c><c>   2</c></rc>
    <rc><c>H </c><c>   2</c></rc>
    <rc><c>H </c><c>   2</c></rc>
    <rc><c>H </c><c>   2</c></rc>
    <rc><c>H </c><c>   2</c></rc>
    <rc><c>H </c><c>   2</c></rc>
    <rc><c>H </c><c>   2</c></rc>
    <rc><c>H </c><c>   2</c></rc>
    <rc><c>H </c><c>   2</c></rc>
    <rc><c>H </c><c>   2</c></rc>
    <rc><c>H </c><c>   2</c></rc>
    <rc><c>H </c><c>   2</c></rc>
    <rc><c>H </c><c>   2</c></rc>
    <rc><c>H </c><c>   2</c></rc>
    <rc><c>H </c><c>   2</c></rc>
    <rc><c>O </c><c>   3</c></rc>
    <rc><c>O </c><c>   3</c></rc>
    <rc><c>O </c><c>   3</c></rc>
    <rc><c>O </c><c>   3</c></rc>
    <rc><c>O </c><c>   3</c></rc>
    <rc><c>O </c><c>   3</c></rc>
    <rc><c>O </c><c>   3</c></rc>
    <rc><c>O </c><c>   3</c></rc>
    <rc><c>O </c><c>   3</c></rc>
    <rc><c>O </c><c>   3</c></rc>
    <rc><c>O </c><c>   3</c></rc>
    <rc><c>O </c><c>   3</c></rc>
    <rc><c>O </c><c>   3</c></rc>
    <rc><c>O </c><c>   3</c></rc>
    <rc><c>O </c><c>   3</c></rc>
    <rc><c>O </c><c>   3</c></rc>
    <rc><c>O </c><c>   3</c></rc>
    <rc><c>O </c><c>   3</c></rc>
    <rc><c>O </c><c>   3</c></rc>
    <rc><c>O </c><c>   3</c></rc>
    <rc><c>O </c><c>   3</c></rc>
    <rc><c>O </c><c>   3</c></rc>
    <rc><c>O </c><c>   3</c></rc>
    <rc><c>O </c><c>   3</c></rc>
    <rc><c>O </c><c>   3</c></rc>
    <rc><c>O </c><c>   3</c></rc>
    <rc><c>O </c><c>   3</c></rc>
    <rc><c>O </c><c>   3</c></rc>
    <rc><c>O </c><c>   3</c></rc>
    <rc><c>O </c><c>   3</c></rc>
    <rc><c>O </c><c>   3</c></rc>
    <rc><c>O </c><c>   3</c></rc>
    <rc><c>O </c><c>   3</c></rc>
    <rc><c>O </c><c>   3</c></rc>
    <rc><c>O </c><c>   3</c></rc>
    <rc><c>O </c><c>   3</c></rc>
    <rc><c>O </c><c>   3</c></rc>
    <rc><c>O </c><c>   3</c></rc>
    <rc><c>O </c><c>   3</c></rc>
    <rc><c>O </c><c>   3</c></rc>
    <rc><c>O </c><c>   3</c></rc>
    <rc><c>O </c><c>   3</c></rc>
    <rc><c>O </c><c>   3</c></rc>
    <rc><c>O </c><c>   3</c></rc>
    <rc><c>O </c><c>   3</c></rc>
    <rc><c>O </c><c>   3</c></rc>
    <rc><c>O </c><c>   3</c></rc>
    <rc><c>O </c><c>   3</c></rc>
    <rc><c>O </c><c>   3</c></rc>
    <rc><c>O </c><c>   3</c></rc>
    <rc><c>O </c><c>   3</c></rc>
    <rc><c>O </c><c>   3</c></rc>
    <rc><c>O </c><c>   3</c></rc>
    <rc><c>O </c><c>   3</c></rc>
    <rc><c>O </c><c>   3</c></rc>
    <rc><c>O </c><c>   3</c></rc>
    <rc><c>O </c><c>   3</c></rc>
    <rc><c>O </c><c>   3</c></rc>
    <rc><c>O </c><c>   3</c></rc>
    <rc><c>O </c><c>   3</c></rc>
    <rc><c>O </c><c>   3</c></rc>
    <rc><c>O </c><c>   3</c></rc>
    <rc><c>O </c><c>   3</c></rc>
    <rc><c>O </c><c>   3</c></rc>
    <rc><c>O </c><c>   3</c></rc>
    <rc><c>O </c><c>   3</c></rc>
    <rc><c>O </c><c>   3</c></rc>
    <rc><c>O </c><c>   3</c></rc>
    <rc><c>O </c><c>   3</c></rc>
    <rc><c>O </c><c>   3</c></rc>
    <rc><c>O </c><c>   3</c></rc>
    <rc><c>O </c><c>   3</c></rc>
    <rc><c>O </c><c>   3</c></rc>
    <rc><c>O </c><c>   3</c></rc>
    <rc><c>O </c><c>   3</c></rc>
    <rc><c>O </c><c>   3</c></rc>
    <rc><c>O </c><c>   3</c></rc>
    <rc><c>O </c><c>   3</c></rc>
    <rc><c>O </c><c>   3</c></rc>
    <rc><c>O </c><c>   3</c></rc>
    <rc><c>O </c><c>   3</c></rc>
    <rc><c>O </c><c>   3</c></rc>
    <rc><c>O </c><c>   3</c></rc>
    <rc><c>O </c><c>   3</c></rc>
    <rc><c>O </c><c>   3</c></rc>
    <rc><c>O </c><c>   3</c></rc>
    <rc><c>O </c><c>   3</c></rc>
    <rc><c>O </c><c>   3</c></rc>
    <rc><c>O </c><c>   3</c></rc>
    <rc><c>O </c><c>   3</c></rc>
    <rc><c>O </c><c>   3</c></rc>
    <rc><c>O </c><c>   3</c></rc>
    <rc><c>O </c><c>   3</c></rc>
    <rc><c>O </c><c>   3</c></rc>
    <rc><c>O </c><c>   3</c></rc>
    <rc><c>O </c><c>   3</c></rc>
    <rc><c>O </c><c>   3</c></rc>
    <rc><c>O </c><c>   3</c></rc>
    <rc><c>O </c><c>   3</c></rc>
    <rc><c>O </c><c>   3</c></rc>
    <rc><c>O </c><c>   3</c></rc>
    <rc><c>O </c><c>   3</c></rc>
    <rc><c>O </c><c>   3</c></rc>
    <rc><c>O </c><c>   3</c></rc>
    <rc><c>O </c><c>   3</c></rc>
    <rc><c>O </c><c>   3</c></rc>
    <rc><c>O </c><c>   3</c></rc>
    <rc><c>O </c><c>   3</c></rc>
    <rc><c>O </c><c>   3</c></rc>
    <rc><c>O </c><c>   3</c></rc>
    <rc><c>O </c><c>   3</c></rc>
    <rc><c>O </c><c>   3</c></rc>
    <rc><c>O </c><c>   3</c></rc>
    <rc><c>O </c><c>   3</c></rc>
    <rc><c>O </c><c>   3</c></rc>
    <rc><c>O </c><c>   3</c></rc>
    <rc><c>O </c><c>   3</c></rc>
    <rc><c>O </c><c>   3</c></rc>
    <rc><c>O </c><c>   3</c></rc>
    <rc><c>O </c><c>   3</c></rc>
    <rc><c>O </c><c>   3</c></rc>
    <rc><c>O </c><c>   3</c></rc>
    <rc><c>O </c><c>   3</c></rc>
    <rc><c>O </c><c>   3</c></rc>
    <rc><c>O </c><c>   3</c></rc>
    <rc><c>O </c><c>   3</c></rc>
    <rc><c>O </c><c>   3</c></rc>
    <rc><c>O </c><c>   3</c></rc>
    <rc><c>O </c><c>   3</c></rc>
    <rc><c>O </c><c>   3</c></rc>
    <rc><c>O </c><c>   3</c></rc>
    <rc><c>O </c><c>   3</c></rc>
    <rc><c>O </c><c>   3</c></rc>
    <rc><c>O </c><c>   3</c></rc>
    <rc><c>O </c><c>   3</c></rc>
    <rc><c>O </c><c>   3</c></rc>
    <rc><c>O </c><c>   3</c></rc>
    <rc><c>O </c><c>   3</c></rc>
    <rc><c>O </c><c>   3</c></rc>
    <rc><c>O </c><c>   3</c></rc>
    <rc><c>O </c><c>   3</c></rc>
    <rc><c>O </c><c>   3</c></rc>
    <rc><c>O </c><c>   3</c></rc>
    <rc><c>O </c><c>   3</c></rc>
    <rc><c>O </c><c>   3</c></rc>
    <rc><c>O </c><c>   3</c></rc>
    <rc><c>O </c><c>   3</c></rc>
    <rc><c>O </c><c>   3</c></rc>
    <rc><c>O </c><c>   3</c></rc>
    <rc><c>O </c><c>   3</c></rc>
    <rc><c>O </c><c>   3</c></rc>
    <rc><c>O </c><c>   3</c></rc>
    <rc><c>O </c><c>   3</c></rc>
    <rc><c>O </c><c>   3</c></rc>
    <rc><c>Si</c><c>   4</c></rc>
    <rc><c>Si</c><c>   4</c></rc>
    <rc><c>Si</c><c>   4</c></rc>
    <rc><c>Si</c><c>   4</c></rc>
    <rc><c>Si</c><c>   4</c></rc>
    <rc><c>Si</c><c>   4</c></rc>
    <rc><c>Si</c><c>   4</c></rc>
    <rc><c>Si</c><c>   4</c></rc>
    <rc><c>Si</c><c>   4</c></rc>
    <rc><c>Si</c><c>   4</c></rc>
    <rc><c>Si</c><c>   4</c></rc>
    <rc><c>Si</c><c>   4</c></rc>
    <rc><c>Si</c><c>   4</c></rc>
    <rc><c>Si</c><c>   4</c></rc>
    <rc><c>Si</c><c>   4</c></rc>
    <rc><c>Si</c><c>   4</c></rc>
    <rc><c>Si</c><c>   4</c></rc>
    <rc><c>Si</c><c>   4</c></rc>
    <rc><c>Si</c><c>   4</c></rc>
    <rc><c>Si</c><c>   4</c></rc>
    <rc><c>Si</c><c>   4</c></rc>
    <rc><c>Si</c><c>   4</c></rc>
    <rc><c>Si</c><c>   4</c></rc>
    <rc><c>Si</c><c>   4</c></rc>
    <rc><c>Si</c><c>   4</c></rc>
    <rc><c>Si</c><c>   4</c></rc>
    <rc><c>Si</c><c>   4</c></rc>
    <rc><c>Si</c><c>   4</c></rc>
    <rc><c>Si</c><c>   4</c></rc>
    <rc><c>Si</c><c>   4</c></rc>
    <rc><c>Si</c><c>   4</c></rc>
    <rc><c>Si</c><c>   4</c></rc>
    <rc><c>Si</c><c>   4</c></rc>
    <rc><c>Si</c><c>   4</c></rc>
    <rc><c>Si</c><c>   4</c></rc>
    <rc><c>Si</c><c>   4</c></rc>
    <rc><c>Si</c><c>   4</c></rc>
    <rc><c>Si</c><c>   4</c></rc>
    <rc><c>Si</c><c>   4</c></rc>
    <rc><c>Si</c><c>   4</c></rc>
    <rc><c>Si</c><c>   4</c></rc>
    <rc><c>Si</c><c>   4</c></rc>
    <rc><c>Si</c><c>   4</c></rc>
    <rc><c>Si</c><c>   4</c></rc>
    <rc><c>Si</c><c>   4</c></rc>
    <rc><c>Si</c><c>   4</c></rc>
    <rc><c>Si</c><c>   4</c></rc>
    <rc><c>Si</c><c>   4</c></rc>
    <rc><c>Si</c><c>   4</c></rc>
    <rc><c>Si</c><c>   4</c></rc>
    <rc><c>Si</c><c>   4</c></rc>
    <rc><c>Si</c><c>   4</c></rc>
    <rc><c>Si</c><c>   4</c></rc>
    <rc><c>Si</c><c>   4</c></rc>
    <rc><c>Si</c><c>   4</c></rc>
    <rc><c>Si</c><c>   4</c></rc>
    <rc><c>Si</c><c>   4</c></rc>
    <rc><c>Si</c><c>   4</c></rc>
    <rc><c>Si</c><c>   4</c></rc>
    <rc><c>Si</c><c>   4</c></rc>
    <rc><c>Si</c><c>   4</c></rc>
    <rc><c>Si</c><c>   4</c></rc>
    <rc><c>Si</c><c>   4</c></rc>
    <rc><c>Si</c><c>   4</c></rc>
    <rc><c>Si</c><c>   4</c></rc>
    <rc><c>W </c><c>   5</c></rc>
   </set>
  </array>
  <array name="atomtypes" >
   <dimension dim="1">type</dimension>
   <field type="int">atomspertype</field>
   <field type="string">element</field>
   <field>mass</field>
   <field>valence</field>
   <field type="string">pseudopotential</field>
   <set>
    <rc><c>   4</c><c>C </c><c>     12.01100000</c><c>      4.00000000</c><c>  PAW_PBE C 08Apr2002                   </c></rc>
    <rc><c>  52</c><c>H </c><c>      1.00000000</c><c>      1.00000000</c><c>  PAW_PBE H 15Jun2001                   </c></rc>
    <rc><c> 154</c><c>O </c><c>     16.00000000</c><c>      6.00000000</c><c>  PAW_PBE O 08Apr2002                   </c></rc>
    <rc><c>  65</c><c>Si</c><c>     28.08500000</c><c>      4.00000000</c><c>  PAW_PBE Si 05Jan2001                  </c></rc>
    <rc><c>   1</c><c>W </c><c>    183.85000000</c><c>      6.00000000</c><c>  PAW_PBE W 08Apr2002                   </c></rc>
   </set>
  </array>
 </atominfo>
 <structure name="initialpos" >
  <crystal>
   <varray name="basis" >
    <v>      23.41129460       0.00000000       0.00000000 </v>
    <v>       0.00000000      18.12123695       0.00000000 </v>
    <v>       0.00000000       0.00000000      26.88336651 </v>
   </varray>
   <i name="volume">  11405.04286946 </i>
   <varray name="rec_basis" >
    <v>       0.04271443       0.00000000       0.00000000 </v>
    <v>       0.00000000       0.05518387       0.00000000 </v>
    <v>       0.00000000       0.00000000       0.03719772 </v>
   </varray>
  </crystal>
  <varray name="positions" >
   <v>       0.54549192       0.53940809       0.72926545 </v>
   <v>       0.52140521       0.59188257       0.76799344 </v>
   <v>       0.56364773       0.46373623       0.74951314 </v>
   <v>       0.53146028       0.67134263       0.76852704 </v>
   <v>       0.76214988       0.15888318       0.65115965 </v>
   <v>       0.92642768       0.33385283       0.35633493 </v>
   <v>       0.79333970       0.26246277       0.37345652 </v>
   <v>       0.97453911       0.99879247       0.32530279 </v>
   <v>       0.62573266       0.01865672       0.37523120 </v>
   <v>       0.82053840       0.05019053       0.36899263 </v>
   <v>       0.74999307       0.19636263       0.45803819 </v>
   <v>       0.91559325       0.30464787       0.50942791 </v>
   <v>       0.58349286       0.35944742       0.30592717 </v>
   <v>       0.89161175       0.39030631       0.61620257 </v>
   <v>       0.58351642       0.41446730       0.61389192 </v>
   <v>       0.59370375       0.92570665       0.57806670 </v>
   <v>       0.03391306       0.39426794       0.65137674 </v>
   <v>       0.93527051       0.47469810       0.45410146 </v>
   <v>       0.74613838       0.58549586       0.42248819 </v>
   <v>       0.79760030       0.43829605       0.63500001 </v>
   <v>       0.59110202       0.62386670       0.37803474 </v>
   <v>       0.71843379       0.70111666       0.38346059 </v>
   <v>       0.84115291       0.59761047       0.41959617 </v>
   <v>       0.00476455       0.65898202       0.35777830 </v>
   <v>       0.82835870       0.76754054       0.46794226 </v>
   <v>       0.87992430       0.65421848       0.71977976 </v>
   <v>       0.51999031       0.04074863       0.42170307 </v>
   <v>       0.22309457       0.03533871       0.39320502 </v>
   <v>       0.21637369       0.29303533       0.31923033 </v>
   <v>       0.15750105       0.38499010       0.27898292 </v>
   <v>       0.34154688       0.21076958       0.33077276 </v>
   <v>       0.22271586       0.10094280       0.32273843 </v>
   <v>       0.51198440       0.87887157       0.54693534 </v>
   <v>       0.38660019       0.30069718       0.64818514 </v>
   <v>       0.24506699       0.14832603       0.59787196 </v>
   <v>       0.31538097       0.54232034       0.44243467 </v>
   <v>       0.40895618       0.49391873       0.40569060 </v>
   <v>       0.39849950       0.84829748       0.38878680 </v>
   <v>       0.24420236       0.71061395       0.29432688 </v>
   <v>       0.31174138       0.47365958       0.36925764 </v>
   <v>       0.40547429       0.63946352       0.33881989 </v>
   <v>       0.13935762       0.54315752       0.35192946 </v>
   <v>       0.59326935       0.75317100       0.35239799 </v>
   <v>       0.46900683       0.91661134       0.44382838 </v>
   <v>       0.12165895       0.37941508       0.61154010 </v>
   <v>       0.07393664       0.71936592       0.64610335 </v>
   <v>       0.24604511       0.43784517       0.68197529 </v>
   <v>       0.24736549       0.87319392       0.66903813 </v>
   <v>       0.58167407       0.56593283       0.70968824 </v>
   <v>       0.48409220       0.57213282       0.78877493 </v>
   <v>       0.59873701       0.46940603       0.77676529 </v>
   <v>       0.52754343       0.43625701       0.76804924 </v>
   <v>       0.57842116       0.42780120       0.71915764 </v>
   <v>       0.55558693       0.60908984       0.79978093 </v>
   <v>       0.56817006       0.69383028       0.74875035 </v>
   <v>       0.50325293       0.70831288       0.78888010 </v>
   <v>       0.36894173       0.70353897       0.43900002 </v>
   <v>       0.34681565       0.55921774       0.42038813 </v>
   <v>       0.86058137       0.62173361       0.69666457 </v>
   <v>       0.34939044       0.01182251       0.53044027 </v>
   <v>       0.03338690       0.98720886       0.52872430 </v>
   <v>       0.63635548       0.13405242       0.48937667 </v>
   <v>       0.06864615       0.10744929       0.39511073 </v>
   <v>       0.45189954       0.18474620       0.42059728 </v>
   <v>       0.80588415       0.26883405       0.48316661 </v>
   <v>       0.97368767       0.23704184       0.59853006 </v>
   <v>       0.27476529       0.35435674       0.44851223 </v>
   <v>       0.55635417       0.83027516       0.44175101 </v>
   <v>       0.39233005       0.02394406       0.61983559 </v>
   <v>       0.17751724       0.40515232       0.40527312 </v>
   <v>       0.86603108       0.73945457       0.63741480 </v>
   <v>       0.86569601       0.02236080       0.46703846 </v>
   <v>       0.30104714       0.81612071       0.45792526 </v>
   <v>       0.42161095       0.31643609       0.37959630 </v>
   <v>       0.81086331       0.52038948       0.52002769 </v>
   <v>       0.98326938       0.12700296       0.52110195 </v>
   <v>       0.52944935       0.50073330       0.62420628 </v>
   <v>       0.03453641       0.97513163       0.42940526 </v>
   <v>       0.96303654       0.35837918       0.35125762 </v>
   <v>       0.06962669       0.39128964       0.37637178 </v>
   <v>       0.20829566       0.78382817       0.39536010 </v>
   <v>       0.03890126       0.47428579       0.49910875 </v>
   <v>       0.23839196       0.34133188       0.58796483 </v>
   <v>       0.39688060       0.24923515       0.64414279 </v>
   <v>       0.46088992       0.60305749       0.59964175 </v>
   <v>       0.90947369       0.80379308       0.55745077 </v>
   <v>       0.86912727       0.16322721       0.44227833 </v>
   <v>       0.57257679       0.72251572       0.37613173 </v>
   <v>       0.14242656       0.21430937       0.37597224 </v>
   <v>       0.35095007       0.81949335       0.60712814 </v>
   <v>       0.91099605       0.90023144       0.48317962 </v>
   <v>       0.06133801       0.59205558       0.44225348 </v>
   <v>       0.70833903       0.61035042       0.41995768 </v>
   <v>       0.07548726       0.87199068       0.48299416 </v>
   <v>       0.70046477       0.88273959       0.43263529 </v>
   <v>       0.73062701       0.10340353       0.54293085 </v>
   <v>       0.91892908       0.35715159       0.63202073 </v>
   <v>       0.73555792       0.90773937       0.61299809 </v>
   <v>       0.62512195       0.58257787       0.48637871 </v>
   <v>       0.55657330       0.68488691       0.46724942 </v>
   <v>       0.42647820       0.29927107       0.55494420 </v>
   <v>       0.97829009       0.78342750       0.47679564 </v>
   <v>       0.65403908       0.64900209       0.63397326 </v>
   <v>       0.39689762       0.80073002       0.51552283 </v>
   <v>       0.60269007       0.57284932       0.38567099 </v>
   <v>       0.71882600       0.68667347       0.55726688 </v>
   <v>       0.14626923       0.42110849       0.61919064 </v>
   <v>       0.06555091       0.60313701       0.54213661 </v>
   <v>       0.81853009       0.93964069       0.53640868 </v>
   <v>       0.82821553       0.41056901       0.45190334 </v>
   <v>       0.52810818       0.34871570       0.52985338 </v>
   <v>       0.73636743       0.55426493       0.59490163 </v>
   <v>       0.55743394       0.22761498       0.39490854 </v>
   <v>       0.80596408       0.31159644       0.38329286 </v>
   <v>       0.23744622       0.00843462       0.50791956 </v>
   <v>       0.69276879       0.83203217       0.54116625 </v>
   <v>       0.92355450       0.00429262       0.55312121 </v>
   <v>       0.52573722       0.37296499       0.39855594 </v>
   <v>       0.46850521       0.04215841       0.54651732 </v>
   <v>       0.83807280       0.14981133       0.53970793 </v>
   <v>       0.53790325       0.17160136       0.48623709 </v>
   <v>       0.35019344       0.24179260       0.43963639 </v>
   <v>       0.01176032       0.01759777       0.33524376 </v>
   <v>       0.46164801       0.65499798       0.68551319 </v>
   <v>       0.65496522       0.98058138       0.37922825 </v>
   <v>       0.07629334       0.74121013       0.43588102 </v>
   <v>       0.45531994       0.45604596       0.55333349 </v>
   <v>       0.71921944       0.75560472       0.37958300 </v>
   <v>       0.44925902       0.75202638       0.59895412 </v>
   <v>       0.75255106       0.76450845       0.47629548 </v>
   <v>       0.77977103       0.17600748       0.62064533 </v>
   <v>       0.99327462       0.36319734       0.44840298 </v>
   <v>       0.52901016       0.56816283       0.52921487 </v>
   <v>       0.81677759       0.55424561       0.42344221 </v>
   <v>       0.23668145       0.20005537       0.60486583 </v>
   <v>       0.20353331       0.88588519       0.47053363 </v>
   <v>       0.24022876       0.61421934       0.52244980 </v>
   <v>       0.06100377       0.68058434       0.62399425 </v>
   <v>       0.04607407       0.65753056       0.35417863 </v>
   <v>       0.80148618       0.03375451       0.60583857 </v>
   <v>       0.53799091       0.08288136       0.40450275 </v>
   <v>       0.60405313       0.36949276       0.60431214 </v>
   <v>       0.86154611       0.05926472       0.36920633 </v>
   <v>       0.09491131       0.20420671       0.46708233 </v>
   <v>       0.17156766       0.25851813       0.53071924 </v>
   <v>       0.64098865       0.75962259       0.45481558 </v>
   <v>       0.43678778       0.46495235       0.38641325 </v>
   <v>       0.57419001       0.11163688       0.57041892 </v>
   <v>       0.15143775       0.64859189       0.38895836 </v>
   <v>       0.26773979       0.65752140       0.39230630 </v>
   <v>       0.44025846       0.37738205       0.47032443 </v>
   <v>       0.23800967       0.21369500       0.42990119 </v>
   <v>       0.07283499       0.20399901       0.56210012 </v>
   <v>       0.84426471       0.60008097       0.59940324 </v>
   <v>       0.62117943       0.33512375       0.41090545 </v>
   <v>       0.60266699       0.94671054       0.46722346 </v>
   <v>       0.03138539       0.25047370       0.38899188 </v>
   <v>       0.60893988       0.24951948       0.54807098 </v>
   <v>       0.13279973       0.99353852       0.47948708 </v>
   <v>       0.07979875       0.33507297       0.51230184 </v>
   <v>       0.37288419       0.15727726       0.56956279 </v>
   <v>       0.06595370       0.75137355       0.53564601 </v>
   <v>       0.66648838       0.47056875       0.43001156 </v>
   <v>       0.79885599       0.78436309       0.56463481 </v>
   <v>       0.70383856       0.01239230       0.47018456 </v>
   <v>       0.59703734       0.68822028       0.55423737 </v>
   <v>       0.72284030       0.34886852       0.45166811 </v>
   <v>       0.97704563       0.36979885       0.54705002 </v>
   <v>       0.15777596       0.68440620       0.57018388 </v>
   <v>       0.63333384       0.38196695       0.50780070 </v>
   <v>       0.81994620       0.45271333       0.60620765 </v>
   <v>       0.95857820       0.08242692       0.41695300 </v>
   <v>       0.28228799       0.25095485       0.51863066 </v>
   <v>       0.24925755       0.49821676       0.46105570 </v>
   <v>       0.27304521       0.90377932       0.56774453 </v>
   <v>       0.20366815       0.74075704       0.48688872 </v>
   <v>       0.14712345       0.53125375       0.49254493 </v>
   <v>       0.22497325       0.47861436       0.55683200 </v>
   <v>       0.91141698       0.50792847       0.47371881 </v>
   <v>       0.86978818       0.75974398       0.46415352 </v>
   <v>       0.73812021       0.14801849       0.44522965 </v>
   <v>       0.22218344       0.98496506       0.40794682 </v>
   <v>       0.25201746       0.45820875       0.64907044 </v>
   <v>       0.63043855       0.93811437       0.59397848 </v>
   <v>       0.41022327       0.84424626       0.42343739 </v>
   <v>       0.91777135       0.25122216       0.50824515 </v>
   <v>       0.13254706       0.49871998       0.33227266 </v>
   <v>       0.15514768       0.35870713       0.31056042 </v>
   <v>       0.37300515       0.18609091       0.34795342 </v>
   <v>       0.03458492       0.34796978       0.63320855 </v>
   <v>       0.57268926       0.31205206       0.32009968 </v>
   <v>       0.24577118       0.82763752       0.65016123 </v>
   <v>       0.20737430       0.70358892       0.31036906 </v>
   <v>       0.27537441       0.44737517       0.36737583 </v>
   <v>       0.36535081       0.65277050       0.34222079 </v>
   <v>       0.22638085       0.11136469       0.35811888 </v>
   <v>       0.24120334       0.25126210       0.32934297 </v>
   <v>       0.50127293       0.94748549       0.45484168 </v>
   <v>       0.55077284       0.88207510       0.53426376 </v>
   <v>       0.54705869       0.70780147       0.63684068 </v>
   <v>       0.47834251       0.17417923       0.59632798 </v>
   <v>       0.26172792       0.74916456       0.56953031 </v>
   <v>       0.44444589       0.89817885       0.58309740 </v>
   <v>       0.76511043       0.67171171       0.64966721 </v>
   <v>       0.84525270       0.88703222       0.62283959 </v>
   <v>       0.64185066       0.79474886       0.62117775 </v>
   <v>       0.00762132       0.08841149       0.60307972 </v>
   <v>       0.28520546       0.05538079       0.59380894 </v>
   <v>       0.50441962       0.02434607       0.62865669 </v>
   <v>       0.42862467       0.48412280       0.70765253 </v>
   <v>       0.08322528       0.66160417       0.40641308 </v>
   <v>       0.40958091       0.81752955       0.57508685 </v>
   <v>       0.84176382       0.49663699       0.46783897 </v>
   <v>       0.01708949       0.04566591       0.39361135 </v>
   <v>       0.01470021       0.33937414       0.39108141 </v>
   <v>       0.00907918       0.16981973       0.57225787 </v>
   <v>       0.61058277       0.71353636       0.61141867 </v>
   <v>       0.21405265       0.53134166       0.50964170 </v>
   <v>       0.91506213       0.81074481       0.49625454 </v>
   <v>       0.52057854       0.16563950       0.42598659 </v>
   <v>       0.41888941       0.22247273       0.58922932 </v>
   <v>       0.08345253       0.19435595       0.40698087 </v>
   <v>       0.70189793       0.10003013       0.48732303 </v>
   <v>       0.66505935       0.95322133       0.43747644 </v>
   <v>       0.65009874       0.55921093       0.43015089 </v>
   <v>       0.19846065       0.96766610       0.46399069 </v>
   <v>       0.21410198       0.42256799       0.60354190 </v>
   <v>       0.67419052       0.86908869       0.59457714 </v>
   <v>       0.21642535       0.69670174       0.53858426 </v>
   <v>       0.36878912       0.79031160       0.45920930 </v>
   <v>       0.79778531       0.94366966       0.59560782 </v>
   <v>       0.87957719       0.96729990       0.51193423 </v>
   <v>       0.57627238       0.63023244       0.51181039 </v>
   <v>       0.58983987       0.17020937       0.52533055 </v>
   <v>       0.85812234       0.20729710       0.49517595 </v>
   <v>       0.83506885       0.65898254       0.64584130 </v>
   <v>       0.13373852       0.41550277       0.35687228 </v>
   <v>       0.79065529       0.33512312       0.44187265 </v>
   <v>       0.39917610       0.23267871       0.39600320 </v>
   <v>       0.85579624       0.80519459       0.59651556 </v>
   <v>       0.28330833       0.98888231       0.54922176 </v>
   <v>       0.02307473       0.38563139       0.50224551 </v>
   <v>       0.57455938       0.75067395       0.43556436 </v>
   <v>       0.23024095       0.80778437       0.45196954 </v>
   <v>       0.59407495       0.33807778       0.54814305 </v>
   <v>       0.97524244       0.32784112       0.60244396 </v>
   <v>       0.88890636       0.08059287       0.42420019 </v>
   <v>       0.10475576       0.25025850       0.51784052 </v>
   <v>       0.04814566       0.78822096       0.48263019 </v>
   <v>       0.23206141       0.26121215       0.56098323 </v>
   <v>       0.56140781       0.31296914       0.38122611 </v>
   <v>       0.47923485       0.68444384       0.62972323 </v>
   <v>       0.28167586       0.82539101       0.59791211 </v>
   <v>       0.20850083       0.69858372       0.37179454 </v>
   <v>       0.74009987       0.76605675       0.53583451 </v>
   <v>       0.98630442       0.04517872       0.55051452 </v>
   <v>       0.70310456       0.79200202       0.43426040 </v>
   <v>       0.78836284       0.11429892       0.57665790 </v>
   <v>       0.45631390       0.38363547       0.40928789 </v>
   <v>       0.45050603       0.98784091       0.59500463 </v>
   <v>       0.50885018       0.09351548       0.58595382 </v>
   <v>       0.24424715       0.42559019       0.42094710 </v>
   <v>       0.65852534       0.38518598       0.45034791 </v>
   <v>       0.46125914       0.37022313       0.52844692 </v>
   <v>       0.33729937       0.64512641       0.39908301 </v>
   <v>       0.80293679       0.53191092       0.57961328 </v>
   <v>       0.06920979       0.95404303       0.48050551 </v>
   <v>       0.21190758       0.19963819       0.37359659 </v>
   <v>       0.07823286       0.54916887       0.49468762 </v>
   <v>       0.55757019       0.90752397       0.47473025 </v>
   <v>       0.71808917       0.63959124       0.60961385 </v>
   <v>       0.28664212       0.26528561       0.45911077 </v>
   <v>       0.08757125       0.68014936       0.56770167 </v>
   <v>       0.35427373       0.07158909       0.57874179 </v>
   <v>       0.49446794       0.52689327       0.57417159 </v>
   <v>       0.47483698       0.54433870       0.67924626 </v>
  </varray>
  <varray name="selective"  type="logical" >
   <v type="logical" >  T  T  T </v>
   <v type="logical" >  T  T  T </v>
   <v type="logical" >  T  T  T </v>
   <v type="logical" >  T  T  T </v>
   <v type="logical" >  T  T  T </v>
   <v type="logical" >  F  F  F </v>
   <v type="logical" >  F  F  F </v>
   <v type="logical" >  F  F  F </v>
   <v type="logical" >  F  F  F </v>
   <v type="logical" >  F  F  F </v>
   <v type="logical" >  F  F  F </v>
   <v type="logical" >  T  T  T </v>
   <v type="logical" >  F  F  F </v>
   <v type="logical" >  T  T  T </v>
   <v type="logical" >  T  T  T </v>
   <v type="logical" >  T  T  T </v>
   <v type="logical" >  T  T  T </v>
   <v type="logical" >  F  F  F </v>
   <v type="logical" >  F  F  F </v>
   <v type="logical" >  T  T  T </v>
   <v type="logical" >  F  F  F </v>
   <v type="logical" >  F  F  F </v>
   <v type="logical" >  F  F  F </v>
   <v type="logical" >  F  F  F </v>
   <v type="logical" >  F  F  F </v>
   <v type="logical" >  T  T  T </v>
   <v type="logical" >  F  F  F </v>
   <v type="logical" >  F  F  F </v>
   <v type="logical" >  F  F  F </v>
   <v type="logical" >  F  F  F </v>
   <v type="logical" >  F  F  F </v>
   <v type="logical" >  F  F  F </v>
   <v type="logical" >  T  T  T </v>
   <v type="logical" >  T  T  T </v>
   <v type="logical" >  T  T  T </v>
   <v type="logical" >  F  F  F </v>
   <v type="logical" >  F  F  F </v>
   <v type="logical" >  F  F  F </v>
   <v type="logical" >  F  F  F </v>
   <v type="logical" >  F  F  F </v>
   <v type="logical" >  F  F  F </v>
   <v type="logical" >  F  F  F </v>
   <v type="logical" >  F  F  F </v>
   <v type="logical" >  F  F  F </v>
   <v type="logical" >  T  T  T </v>
   <v type="logical" >  T  T  T </v>
   <v type="logical" >  T  T  T </v>
   <v type="logical" >  T  T  T </v>
   <v type="logical" >  T  T  T </v>
   <v type="logical" >  T  T  T </v>
   <v type="logical" >  T  T  T </v>
   <v type="logical" >  T  T  T </v>
   <v type="logical" >  T  T  T </v>
   <v type="logical" >  T  T  T </v>
   <v type="logical" >  T  T  T </v>
   <v type="logical" >  T  T  T </v>
   <v type="logical" >  F  F  F </v>
   <v type="logical" >  F  F  F </v>
   <v type="logical" >  T  T  T </v>
   <v type="logical" >  T  T  T </v>
   <v type="logical" >  T  T  T </v>
   <v type="logical" >  F  F  F </v>
   <v type="logical" >  F  F  F </v>
   <v type="logical" >  F  F  F </v>
   <v type="logical" >  F  F  F </v>
   <v type="logical" >  T  T  T </v>
   <v type="logical" >  F  F  F </v>
   <v type="logical" >  F  F  F </v>
   <v type="logical" >  T  T  T </v>
   <v type="logical" >  F  F  F </v>
   <v type="logical" >  T  T  T </v>
   <v type="logical" >  F  F  F </v>
   <v type="logical" >  F  F  F </v>
   <v type="logical" >  F  F  F </v>
   <v type="logical" >  T  T  T </v>
   <v type="logical" >  T  T  T </v>
   <v type="logical" >  T  T  T </v>
   <v type="logical" >  F  F  F </v>
   <v type="logical" >  F  F  F </v>
   <v type="logical" >  F  F  F </v>
   <v type="logical" >  F  F  F </v>
   <v type="logical" >  F  F  F </v>
   <v type="logical" >  T  T  T </v>
   <v type="logical" >  T  T  T </v>
   <v type="logical" >  T  T  T </v>
   <v type="logical" >  T  T  T </v>
   <v type="logical" >  F  F  F </v>
   <v type="logical" >  F  F  F </v>
   <v type="logical" >  F  F  F </v>
   <v type="logical" >  T  T  T </v>
   <v type="logical" >  F  F  F </v>
   <v type="logical" >  F  F  F </v>
   <v type="logical" >  F  F  F </v>
   <v type="logical" >  F  F  F </v>
   <v type="logical" >  F  F  F </v>
   <v type="logical" >  T  T  T </v>
   <v type="logical" >  T  T  T </v>
   <v type="logical" >  T  T  T </v>
   <v type="logical" >  F  F  F </v>
   <v type="logical" >  F  F  F </v>
   <v type="logical" >  T  T  T </v>
   <v type="logical" >  F  F  F </v>
   <v type="logical" >  T  T  T </v>
   <v type="logical" >  T  T  T </v>
   <v type="logical" >  F  F  F </v>
   <v type="logical" >  T  T  T </v>
   <v type="logical" >  T  T  T </v>
   <v type="logical" >  T  T  T </v>
   <v type="logical" >  T  T  T </v>
   <v type="logical" >  F  F  F </v>
   <v type="logical" >  T  T  T </v>
   <v type="logical" >  T  T  T </v>
   <v type="logical" >  F  F  F </v>
   <v type="logical" >  F  F  F </v>
   <v type="logical" >  F  F  F </v>
   <v type="logical" >  T  T  T </v>
   <v type="logical" >  T  T  T </v>
   <v type="logical" >  F  F  F </v>
   <v type="logical" >  T  T  T </v>
   <v type="logical" >  T  T  T </v>
   <v type="logical" >  F  F  F </v>
   <v type="logical" >  F  F  F </v>
   <v type="logical" >  F  F  F </v>
   <v type="logical" >  T  T  T </v>
   <v type="logical" >  F  F  F </v>
   <v type="logical" >  F  F  F </v>
   <v type="logical" >  T  T  T </v>
   <v type="logical" >  F  F  F </v>
   <v type="logical" >  T  T  T </v>
[...]
   <v>       0.65496522       0.98058138       0.37922825 </v>
   <v>       0.07629334       0.74121013       0.43588102 </v>
   <v>       0.45531994       0.45604596       0.55333349 </v>
   <v>       0.71921944       0.75560472       0.37958300 </v>
   <v>       0.44925902       0.75202638       0.59895412 </v>
   <v>       0.75255106       0.76450845       0.47629548 </v>
   <v>       0.77977103       0.17600748       0.62064533 </v>
   <v>       0.99327462       0.36319734       0.44840298 </v>
   <v>       0.52901016       0.56816283       0.52921487 </v>
   <v>       0.81677759       0.55424561       0.42344221 </v>
   <v>       0.23668145       0.20005537       0.60486583 </v>
   <v>       0.20353331       0.88588519       0.47053363 </v>
   <v>       0.24022876       0.61421934       0.52244980 </v>
   <v>       0.06100377       0.68058434       0.62399425 </v>
   <v>       0.04607407       0.65753056       0.35417863 </v>
   <v>       0.80148618       0.03375451       0.60583857 </v>
   <v>       0.53799091       0.08288136       0.40450275 </v>
   <v>       0.60405313       0.36949276       0.60431214 </v>
   <v>       0.86154611       0.05926472       0.36920633 </v>
   <v>       0.09491131       0.20420671       0.46708233 </v>
   <v>       0.17156766       0.25851813       0.53071924 </v>
   <v>       0.64098865       0.75962259       0.45481558 </v>
   <v>       0.43678778       0.46495235       0.38641325 </v>
   <v>       0.57419001       0.11163688       0.57041892 </v>
   <v>       0.15143775       0.64859189       0.38895836 </v>
   <v>       0.26773979       0.65752140       0.39230630 </v>
   <v>       0.44025846       0.37738205       0.47032443 </v>
   <v>       0.23800967       0.21369500       0.42990119 </v>
   <v>       0.07283499       0.20399901       0.56210012 </v>
   <v>       0.84426471       0.60008097       0.59940324 </v>
   <v>       0.62117943       0.33512375       0.41090545 </v>
   <v>       0.60266699       0.94671054       0.46722346 </v>
   <v>       0.03138539       0.25047370       0.38899188 </v>
   <v>       0.60893988       0.24951948       0.54807098 </v>
   <v>       0.13279973       0.99353852       0.47948708 </v>
   <v>       0.07979875       0.33507297       0.51230184 </v>
   <v>       0.37288419       0.15727726       0.56956279 </v>
   <v>       0.06595370       0.75137355       0.53564601 </v>
   <v>       0.66648838       0.47056875       0.43001156 </v>
   <v>       0.79885599       0.78436309       0.56463481 </v>
   <v>       0.70383856       0.01239230       0.47018456 </v>
   <v>       0.59703734       0.68822028       0.55423737 </v>
   <v>       0.72284030       0.34886852       0.45166811 </v>
   <v>       0.97704563       0.36979885       0.54705002 </v>
   <v>       0.15777596       0.68440620       0.57018388 </v>
   <v>       0.63333384       0.38196695       0.50780070 </v>
   <v>       0.81994620       0.45271333       0.60620765 </v>
   <v>       0.95857820       0.08242692       0.41695300 </v>
   <v>       0.28228799       0.25095485       0.51863066 </v>
   <v>       0.24925755       0.49821676       0.46105570 </v>
   <v>       0.27304521       0.90377932       0.56774453 </v>
   <v>       0.20366815       0.74075704       0.48688872 </v>
   <v>       0.14712345       0.53125375       0.49254493 </v>
   <v>       0.22497325       0.47861436       0.55683200 </v>
   <v>       0.91141698       0.50792847       0.47371881 </v>
   <v>       0.86978818       0.75974398       0.46415352 </v>
   <v>       0.73812021       0.14801849       0.44522965 </v>
   <v>       0.22218344       0.98496506       0.40794682 </v>
   <v>       0.25201746       0.45820875       0.64907044 </v>
   <v>       0.63043855       0.93811437       0.59397848 </v>
   <v>       0.41022327       0.84424626       0.42343739 </v>
   <v>       0.91777135       0.25122216       0.50824515 </v>
   <v>       0.13254706       0.49871998       0.33227266 </v>
   <v>       0.15514768       0.35870713       0.31056042 </v>
   <v>       0.37300515       0.18609091       0.34795342 </v>
   <v>       0.03458492       0.34796978       0.63320855 </v>
   <v>       0.57268926       0.31205206       0.32009968 </v>
   <v>       0.24577118       0.82763752       0.65016123 </v>
   <v>       0.20737430       0.70358892       0.31036906 </v>
   <v>       0.27537441       0.44737517       0.36737583 </v>
   <v>       0.36535081       0.65277050       0.34222079 </v>
   <v>       0.22638085       0.11136469       0.35811888 </v>
   <v>       0.24120334       0.25126210       0.32934297 </v>
   <v>       0.50127293       0.94748549       0.45484168 </v>
   <v>       0.55077284       0.88207510       0.53426376 </v>
   <v>       0.54705869       0.70780147       0.63684068 </v>
   <v>       0.47834251       0.17417923       0.59632798 </v>
   <v>       0.26172792       0.74916456       0.56953031 </v>
   <v>       0.44444589       0.89817885       0.58309740 </v>
   <v>       0.76511043       0.67171171       0.64966721 </v>
   <v>       0.84525270       0.88703222       0.62283959 </v>
   <v>       0.64185066       0.79474886       0.62117775 </v>
   <v>       0.00762132       0.08841149       0.60307972 </v>
   <v>       0.28520546       0.05538079       0.59380894 </v>
   <v>       0.50441962       0.02434607       0.62865669 </v>
   <v>       0.42862467       0.48412280       0.70765253 </v>
   <v>       0.08322528       0.66160417       0.40641308 </v>
   <v>       0.40958091       0.81752955       0.57508685 </v>
   <v>       0.84176382       0.49663699       0.46783897 </v>
   <v>       0.01708949       0.04566591       0.39361135 </v>
   <v>       0.01470021       0.33937414       0.39108141 </v>
   <v>       0.00907918       0.16981973       0.57225787 </v>
   <v>       0.61058277       0.71353636       0.61141867 </v>
   <v>       0.21405265       0.53134166       0.50964170 </v>
   <v>       0.91506213       0.81074481       0.49625454 </v>
   <v>       0.52057854       0.16563950       0.42598659 </v>
   <v>       0.41888941       0.22247273       0.58922932 </v>
   <v>       0.08345253       0.19435595       0.40698087 </v>
   <v>       0.70189793       0.10003013       0.48732303 </v>
   <v>       0.66505935       0.95322133       0.43747644 </v>
   <v>       0.65009874       0.55921093       0.43015089 </v>
   <v>       0.19846065       0.96766610       0.46399069 </v>
   <v>       0.21410198       0.42256799       0.60354190 </v>
   <v>       0.67419052       0.86908869       0.59457714 </v>
   <v>       0.21642535       0.69670174       0.53858426 </v>
   <v>       0.36878912       0.79031160       0.45920930 </v>
   <v>       0.79778531       0.94366966       0.59560782 </v>
   <v>       0.87957719       0.96729990       0.51193423 </v>
   <v>       0.57627238       0.63023244       0.51181039 </v>
   <v>       0.58983987       0.17020937       0.52533055 </v>
   <v>       0.85812234       0.20729710       0.49517595 </v>
   <v>       0.83506885       0.65898254       0.64584130 </v>
   <v>       0.13373852       0.41550277       0.35687228 </v>
   <v>       0.79065529       0.33512312       0.44187265 </v>
   <v>       0.39917610       0.23267871       0.39600320 </v>
   <v>       0.85579624       0.80519459       0.59651556 </v>
   <v>       0.28330833       0.98888231       0.54922176 </v>
   <v>       0.02307473       0.38563139       0.50224551 </v>
   <v>       0.57455938       0.75067395       0.43556436 </v>
   <v>       0.23024095       0.80778437       0.45196954 </v>
   <v>       0.59407495       0.33807778       0.54814305 </v>
   <v>       0.97524244       0.32784112       0.60244396 </v>
   <v>       0.88890636       0.08059287       0.42420019 </v>
   <v>       0.10475576       0.25025850       0.51784052 </v>
   <v>       0.04814566       0.78822096       0.48263019 </v>
   <v>       0.23206141       0.26121215       0.56098323 </v>
   <v>       0.56140781       0.31296914       0.38122611 </v>
   <v>       0.47923485       0.68444384       0.62972323 </v>
   <v>       0.28167586       0.82539101       0.59791211 </v>
   <v>       0.20850083       0.69858372       0.37179454 </v>
   <v>       0.74009987       0.76605675       0.53583451 </v>
   <v>       0.98630442       0.04517872       0.55051452 </v>
   <v>       0.70310456       0.79200202       0.43426040 </v>
   <v>       0.78836284       0.11429892       0.57665790 </v>
   <v>       0.45631390       0.38363547       0.40928789 </v>
   <v>       0.45050603       0.98784091       0.59500463 </v>
   <v>       0.50885018       0.09351548       0.58595382 </v>
   <v>       0.24424715       0.42559019       0.42094710 </v>
   <v>       0.65852534       0.38518598       0.45034791 </v>
   <v>       0.46125914       0.37022313       0.52844692 </v>
   <v>       0.33729937       0.64512641       0.39908301 </v>
   <v>       0.80293679       0.53191092       0.57961328 </v>
   <v>       0.06920979       0.95404303       0.48050551 </v>
   <v>       0.21190758       0.19963819       0.37359659 </v>
   <v>       0.07823286       0.54916887       0.49468762 </v>
   <v>       0.55757019       0.90752397       0.47473025 </v>
   <v>       0.71808917       0.63959124       0.60961385 </v>
   <v>       0.28664212       0.26528561       0.45911077 </v>
   <v>       0.08757125       0.68014936       0.56770167 </v>
   <v>       0.35427373       0.07158909       0.57874179 </v>
   <v>       0.49446794       0.52689327       0.57417159 </v>
   <v>       0.47483698       0.54433870       0.67924626 </v>
  </varray>
  <varray name="selective"  type="logical" >
   <v type="logical" >  T  T  T </v>
   <v type="logical" >  T  T  T </v>
   <v type="logical" >  T  T  T </v>
   <v type="logical" >  T  T  T </v>
   <v type="logical" >  T  T  T </v>
   <v type="logical" >  F  F  F </v>
   <v type="logical" >  F  F  F </v>
   <v type="logical" >  F  F  F </v>
   <v type="logical" >  F  F  F </v>
   <v type="logical" >  F  F  F </v>
   <v type="logical" >  F  F  F </v>
   <v type="logical" >  T  T  T </v>
   <v type="logical" >  F  F  F </v>
   <v type="logical" >  T  T  T </v>
   <v type="logical" >  T  T  T </v>
   <v type="logical" >  T  T  T </v>
   <v type="logical" >  T  T  T </v>
   <v type="logical" >  F  F  F </v>
   <v type="logical" >  F  F  F </v>
   <v type="logical" >  T  T  T </v>
   <v type="logical" >  F  F  F </v>
   <v type="logical" >  F  F  F </v>
   <v type="logical" >  F  F  F </v>
   <v type="logical" >  F  F  F </v>
   <v type="logical" >  F  F  F </v>
   <v type="logical" >  T  T  T </v>
   <v type="logical" >  F  F  F </v>
   <v type="logical" >  F  F  F </v>
   <v type="logical" >  F  F  F </v>
   <v type="logical" >  F  F  F </v>
   <v type="logical" >  F  F  F </v>
   <v type="logical" >  F  F  F </v>
   <v type="logical" >  T  T  T </v>
   <v type="logical" >  T  T  T </v>
   <v type="logical" >  T  T  T </v>
   <v type="logical" >  F  F  F </v>
   <v type="logical" >  F  F  F </v>
   <v type="logical" >  F  F  F </v>
   <v type="logical" >  F  F  F </v>
   <v type="logical" >  F  F  F </v>
   <v type="logical" >  F  F  F </v>
   <v type="logical" >  F  F  F </v>
   <v type="logical" >  F  F  F </v>
   <v type="logical" >  F  F  F </v>
   <v type="logical" >  T  T  T </v>
   <v type="logical" >  T  T  T </v>
   <v type="logical" >  T  T  T </v>
   <v type="logical" >  T  T  T </v>
   <v type="logical" >  T  T  T </v>
   <v type="logical" >  T  T  T </v>
   <v type="logical" >  T  T  T </v>
   <v type="logical" >  T  T  T </v>
   <v type="logical" >  T  T  T </v>
   <v type="logical" >  T  T  T </v>
   <v type="logical" >  T  T  T </v>
   <v type="logical" >  T  T  T </v>
   <v type="logical" >  F  F  F </v>
   <v type="logical" >  F  F  F </v>
   <v type="logical" >  T  T  T </v>
   <v type="logical" >  T  T  T </v>
   <v type="logical" >  T  T  T </v>
   <v type="logical" >  F  F  F </v>
   <v type="logical" >  F  F  F </v>
   <v type="logical" >  F  F  F </v>
   <v type="logical" >  F  F  F </v>
   <v type="logical" >  T  T  T </v>
   <v type="logical" >  F  F  F </v>
   <v type="logical" >  F  F  F </v>
   <v type="logical" >  T  T  T </v>
   <v type="logical" >  F  F  F </v>
   <v type="logical" >  T  T  T </v>
   <v type="logical" >  F  F  F </v>
   <v type="logical" >  F  F  F </v>
   <v type="logical" >  F  F  F </v>
   <v type="logical" >  T  T  T </v>
   <v type="logical" >  T  T  T </v>
   <v type="logical" >  T  T  T </v>
   <v type="logical" >  F  F  F </v>
   <v type="logical" >  F  F  F </v>
   <v type="logical" >  F  F  F </v>
   <v type="logical" >  F  F  F </v>
   <v type="logical" >  F  F  F </v>
   <v type="logical" >  T  T  T </v>
   <v type="logical" >  T  T  T </v>
   <v type="logical" >  T  T  T </v>
   <v type="logical" >  T  T  T </v>
   <v type="logical" >  F  F  F </v>
   <v type="logical" >  F  F  F </v>
   <v type="logical" >  F  F  F </v>
   <v type="logical" >  T  T  T </v>
   <v type="logical" >  F  F  F </v>
   <v type="logical" >  F  F  F </v>
   <v type="logical" >  F  F  F </v>
   <v type="logical" >  F  F  F </v>
   <v type="logical" >  F  F  F </v>
   <v type="logical" >  T  T  T </v>
   <v type="logical" >  T  T  T </v>
   <v type="logical" >  T  T  T </v>
   <v type="logical" >  F  F  F </v>
   <v type="logical" >  F  F  F </v>
   <v type="logical" >  T  T  T </v>
   <v type="logical" >  F  F  F </v>
   <v type="logical" >  T  T  T </v>
   <v type="logical" >  T  T  T </v>
   <v type="logical" >  F  F  F </v>
   <v type="logical" >  T  T  T </v>
   <v type="logical" >  T  T  T </v>
   <v type="logical" >  T  T  T </v>
   <v type="logical" >  T  T  T </v>
   <v type="logical" >  F  F  F </v>
   <v type="logical" >  T  T  T </v>
   <v type="logical" >  T  T  T </v>
   <v type="logical" >  F  F  F </v>
   <v type="logical" >  F  F  F </v>
   <v type="logical" >  F  F  F </v>
   <v type="logical" >  T  T  T </v>
   <v type="logical" >  T  T  T </v>
   <v type="logical" >  F  F  F </v>
   <v type="logical" >  T  T  T </v>
   <v type="logical" >  T  T  T </v>
   <v type="logical" >  F  F  F </v>
   <v type="logical" >  F  F  F </v>
   <v type="logical" >  F  F  F </v>
   <v type="logical" >  T  T  T </v>
   <v type="logical" >  F  F  F </v>
   <v type="logical" >  F  F  F </v>
   <v type="logical" >  T  T  T </v>
   <v type="logical" >  F  F  F </v>
   <v type="logical" >  T  T  T </v>
   <v type="logical" >  F  F  F </v>
   <v type="logical" >  T  T  T </v>
   <v type="logical" >  F  F  F </v>
   <v type="logical" >  T  T  T </v>
   <v type="logical" >  F  F  F </v>
   <v type="logical" >  T  T  T </v>
   <v type="logical" >  F  F  F </v>
   <v type="logical" >  T  T  T </v>
   <v type="logical" >  T  T  T </v>
   <v type="logical" >  F  F  F </v>
   <v type="logical" >  T  T  T </v>
   <v type="logical" >  F  F  F </v>
   <v type="logical" >  T  T  T </v>
   <v type="logical" >  F  F  F </v>
   <v type="logical" >  F  F  F </v>
   <v type="logical" >  T  T  T </v>
   <v type="logical" >  F  F  F </v>
   <v type="logical" >  F  F  F </v>
   <v type="logical" >  T  T  T </v>
   <v type="logical" >  F  F  F </v>
   <v type="logical" >  F  F  F </v>
   <v type="logical" >  F  F  F </v>
   <v type="logical" >  F  F  F </v>
   <v type="logical" >  T  T  T </v>
   <v type="logical" >  T  T  T </v>
   <v type="logical" >  F  F  F </v>
   <v type="logical" >  F  F  F </v>
   <v type="logical" >  F  F  F </v>
   <v type="logical" >  T  T  T </v>
   <v type="logical" >  F  F  F </v>
   <v type="logical" >  T  T  T </v>
   <v type="logical" >  T  T  T </v>
   <v type="logical" >  T  T  T </v>
   <v type="logical" >  F  F  F </v>
   <v type="logical" >  T  T  T </v>
   <v type="logical" >  F  F  F </v>
   <v type="logical" >  T  T  T </v>
   <v type="logical" >  F  F  F </v>
   <v type="logical" >  T  T  T </v>
   <v type="logical" >  T  T  T </v>
   <v type="logical" >  F  F  F </v>
   <v type="logical" >  T  T  T </v>
   <v type="logical" >  F  F  F </v>
   <v type="logical" >  T  T  T </v>
   <v type="logical" >  F  F  F </v>
   <v type="logical" >  T  T  T </v>
   <v type="logical" >  F  F  F </v>
   <v type="logical" >  F  F  F </v>
   <v type="logical" >  T  T  T </v>
   <v type="logical" >  F  F  F </v>
   <v type="logical" >  F  F  F </v>
   <v type="logical" >  F  F  F </v>
   <v type="logical" >  F  F  F </v>
   <v type="logical" >  T  T  T </v>
   <v type="logical" >  T  T  T </v>
   <v type="logical" >  F  F  F </v>
   <v type="logical" >  F  F  F </v>
   <v type="logical" >  F  F  F </v>
   <v type="logical" >  F  F  F </v>
   <v type="logical" >  F  F  F </v>
   <v type="logical" >  T  T  T </v>
   <v type="logical" >  F  F  F </v>
   <v type="logical" >  T  T  T </v>
   <v type="logical" >  F  F  F </v>
   <v type="logical" >  F  F  F </v>
   <v type="logical" >  F  F  F </v>
   <v type="logical" >  F  F  F </v>
   <v type="logical" >  F  F  F </v>
   <v type="logical" >  F  F  F </v>
   <v type="logical" >  T  T  T </v>
   <v type="logical" >  T  T  T </v>
   <v type="logical" >  T  T  T </v>
   <v type="logical" >  T  T  T </v>
   <v type="logical" >  T  T  T </v>
   <v type="logical" >  T  T  T </v>
   <v type="logical" >  T  T  T </v>
   <v type="logical" >  T  T  T </v>
   <v type="logical" >  T  T  T </v>
   <v type="logical" >  T  T  T </v>
   <v type="logical" >  T  T  T </v>
   <v type="logical" >  T  T  T </v>
   <v type="logical" >  F  F  F </v>
   <v type="logical" >  T  T  T </v>
   <v type="logical" >  F  F  F </v>
   <v type="logical" >  F  F  F </v>
   <v type="logical" >  F  F  F </v>
   <v type="logical" >  T  T  T </v>
   <v type="logical" >  T  T  T </v>
   <v type="logical" >  T  T  T </v>
   <v type="logical" >  F  F  F </v>
   <v type="logical" >  F  F  F </v>
   <v type="logical" >  T  T  T </v>
   <v type="logical" >  F  F  F </v>
   <v type="logical" >  F  F  F </v>
   <v type="logical" >  F  F  F </v>
   <v type="logical" >  F  F  F </v>
   <v type="logical" >  F  F  F </v>
   <v type="logical" >  T  T  T </v>
   <v type="logical" >  T  T  T </v>
   <v type="logical" >  T  T  T </v>
   <v type="logical" >  F  F  F </v>
   <v type="logical" >  T  T  T </v>
   <v type="logical" >  T  T  T </v>
   <v type="logical" >  T  T  T </v>
   <v type="logical" >  T  T  T </v>
   <v type="logical" >  F  F  F </v>
   <v type="logical" >  T  T  T </v>
   <v type="logical" >  F  F  F </v>
   <v type="logical" >  F  F  F </v>
   <v type="logical" >  F  F  F </v>
   <v type="logical" >  T  T  T </v>
   <v type="logical" >  T  T  T </v>
   <v type="logical" >  F  F  F </v>
   <v type="logical" >  F  F  F </v>
   <v type="logical" >  F  F  F </v>
   <v type="logical" >  T  T  T </v>
   <v type="logical" >  T  T  T </v>
   <v type="logical" >  F  F  F </v>
   <v type="logical" >  T  T  T </v>
   <v type="logical" >  F  F  F </v>
   <v type="logical" >  T  T  T </v>
   <v type="logical" >  F  F  F </v>
   <v type="logical" >  T  T  T </v>
   <v type="logical" >  T  T  T </v>
   <v type="logical" >  F  F  F </v>
   <v type="logical" >  T  T  T </v>
   <v type="logical" >  T  T  T </v>
   <v type="logical" >  F  F  F </v>
   <v type="logical" >  T  T  T </v>
   <v type="logical" >  F  F  F </v>
   <v type="logical" >  T  T  T </v>
   <v type="logical" >  T  T  T </v>
   <v type="logical" >  F  F  F </v>
   <v type="logical" >  F  F  F </v>
   <v type="logical" >  T  T  T </v>
   <v type="logical" >  F  F  F </v>
   <v type="logical" >  T  T  T </v>
   <v type="logical" >  F  F  F </v>
   <v type="logical" >  F  F  F </v>
   <v type="logical" >  F  F  F </v>
   <v type="logical" >  F  F  F </v>
   <v type="logical" >  T  T  T </v>
   <v type="logical" >  F  F  F </v>
   <v type="logical" >  T  T  T </v>
   <v type="logical" >  T  T  T </v>
   <v type="logical" >  T  T  T </v>
   <v type="logical" >  T  T  T </v>
  </varray>
  <nose>
   <v>      -3.00000000       0.00000000       0.00010000       0.00010000 </v>
  </nose>
 </structure>
</modeling>
