unknown system                          
           1
    23.411295    0.000000    0.000000
     0.000000   18.121237    0.000000
     0.000000    0.000000   26.883367
   C    H    O    Si   W 
   4  52 154  65   1
Direct configuration=     1
   0.54549192  0.53940809  0.72926545
   0.52140521  0.59188257  0.76799344
   0.56364773  0.46373623  0.74951314
   0.53146028  0.67134263  0.76852704
   0.76214988  0.15888318  0.65115965
   0.92642768  0.33385283  0.35633493
   0.79333970  0.26246277  0.37345652
   0.97453911  0.99879247  0.32530279
   0.62573266  0.01865672  0.37523120
   0.82053840  0.05019053  0.36899263
   0.74999307  0.19636263  0.45803819
   0.91559325  0.30464787  0.50942791
   0.58349286  0.35944742  0.30592717
   0.89161175  0.39030631  0.61620257
   0.58351642  0.41446730  0.61389192
   0.59370375  0.92570665  0.57806670
   0.03391306  0.39426794  0.65137674
   0.93527051  0.47469810  0.45410146
   0.74613838  0.58549586  0.42248819
   0.79760030  0.43829605  0.63500001
   0.59110202  0.62386670  0.37803474
   0.71843379  0.70111666  0.38346059
   0.84115291  0.59761047  0.41959617
   0.00476455  0.65898202  0.35777830
   0.82835870  0.76754054  0.46794226
   0.87992430  0.65421848  0.71977976
   0.51999031  0.04074863  0.42170307
   0.22309457  0.03533871  0.39320502
   0.21637369  0.29303533  0.31923033
   0.15750105  0.38499010  0.27898292
   0.34154688  0.21076958  0.33077276
   0.22271586  0.10094280  0.32273843
   0.51198440  0.87887157  0.54693534
   0.38660019  0.30069718  0.64818514
   0.24506699  0.14832603  0.59787196
   0.31538097  0.54232034  0.44243467
   0.40895618  0.49391873  0.40569060
   0.39849950  0.84829748  0.38878680
   0.24420236  0.71061395  0.29432688
   0.31174138  0.47365958  0.36925764
   0.40547429  0.63946352  0.33881989
   0.13935762  0.54315752  0.35192946
   0.59326935  0.75317100  0.35239799
   0.46900683  0.91661134  0.44382838
   0.12165895  0.37941508  0.61154010
   0.07393664  0.71936592  0.64610335
   0.24604511  0.43784517  0.68197529
   0.24736549  0.87319392  0.66903813
   0.58167407  0.56593283  0.70968824
   0.48409220  0.57213282  0.78877493
   0.59873701  0.46940603  0.77676529
   0.52754343  0.43625701  0.76804924
   0.57842116  0.42780120  0.71915764
   0.55558693  0.60908984  0.79978093
   0.56817006  0.69383028  0.74875035
   0.50325293  0.70831288  0.78888010
   0.36894173  0.70353897  0.43900002
   0.34681565  0.55921774  0.42038813
   0.86058137  0.62173361  0.69666457
   0.34939044  0.01182251  0.53044027
   0.03338690  0.98720886  0.52872430
   0.63635548  0.13405242  0.48937667
   0.06864615  0.10744929  0.39511073
   0.45189954  0.18474620  0.42059728
   0.80588415  0.26883405  0.48316661
   0.97368767  0.23704184  0.59853006
   0.27476529  0.35435674  0.44851223
   0.55635417  0.83027516  0.44175101
   0.39233005  0.02394406  0.61983559
   0.17751724  0.40515232  0.40527312
   0.86603108  0.73945457  0.63741480
   0.86569601  0.02236080  0.46703846
   0.30104714  0.81612071  0.45792526
   0.42161095  0.31643609  0.37959630
   0.81086331  0.52038948  0.52002769
   0.98326938  0.12700296  0.52110195
   0.52944935  0.50073330  0.62420628
   0.03453641  0.97513163  0.42940526
   0.96303654  0.35837918  0.35125762
   0.06962669  0.39128964  0.37637178
   0.20829566  0.78382817  0.39536010
   0.03890126  0.47428579  0.49910875
   0.23839196  0.34133188  0.58796483
   0.39688060  0.24923515  0.64414279
   0.46088992  0.60305749  0.59964175
   0.90947369  0.80379308  0.55745077
   0.86912727  0.16322721  0.44227833
   0.57257679  0.72251572  0.37613173
   0.14242656  0.21430937  0.37597224
   0.35095007  0.81949335  0.60712814
   0.91099605  0.90023144  0.48317962
   0.06133801  0.59205558  0.44225348
   0.70833903  0.61035042  0.41995768
   0.07548726  0.87199068  0.48299416
   0.70046477  0.88273959  0.43263529
   0.73062701  0.10340353  0.54293085
   0.91892908  0.35715159  0.63202073
   0.73555792  0.90773937  0.61299809
   0.62512195  0.58257787  0.48637871
   0.55657330  0.68488691  0.46724942
   0.42647820  0.29927107  0.55494420
   0.97829009  0.78342750  0.47679564
   0.65403908  0.64900209  0.63397326
   0.39689762  0.80073002  0.51552283
   0.60269007  0.57284932  0.38567099
   0.71882600  0.68667347  0.55726688
   0.14626923  0.42110849  0.61919064
   0.06555091  0.60313701  0.54213661
   0.81853009  0.93964069  0.53640868
   0.82821553  0.41056901  0.45190334
   0.52810818  0.34871570  0.52985338
   0.73636743  0.55426493  0.59490163
   0.55743394  0.22761498  0.39490854
   0.80596408  0.31159644  0.38329286
   0.23744622  0.00843462  0.50791956
   0.69276879  0.83203217  0.54116625
   0.92355450  0.00429262  0.55312121
   0.52573722  0.37296499  0.39855594
   0.46850521  0.04215841  0.54651732
   0.83807280  0.14981133  0.53970793
   0.53790325  0.17160136  0.48623709
   0.35019344  0.24179260  0.43963639
   0.01176032  0.01759777  0.33524376
   0.46164801  0.65499798  0.68551319
   0.65496522  0.98058138  0.37922825
   0.07629334  0.74121013  0.43588102
   0.45531994  0.45604596  0.55333349
   0.71921944  0.75560472  0.37958300
   0.44925902  0.75202638  0.59895412
   0.75255106  0.76450845  0.47629548
   0.77977103  0.17600748  0.62064533
   0.99327462  0.36319734  0.44840298
   0.52901016  0.56816283  0.52921487
   0.81677759  0.55424561  0.42344221
   0.23668145  0.20005537  0.60486583
   0.20353331  0.88588519  0.47053363
   0.24022876  0.61421934  0.52244980
   0.06100377  0.68058434  0.62399425
   0.04607407  0.65753056  0.35417863
   0.80148618  0.03375451  0.60583857
   0.53799091  0.08288136  0.40450275
   0.60405313  0.36949276  0.60431214
   0.86154611  0.05926472  0.36920633
   0.09491131  0.20420671  0.46708233
   0.17156766  0.25851813  0.53071924
   0.64098865  0.75962259  0.45481558
   0.43678778  0.46495235  0.38641325
   0.57419001  0.11163688  0.57041892
   0.15143775  0.64859189  0.38895836
   0.26773979  0.65752140  0.39230630
   0.44025846  0.37738205  0.47032443
   0.23800967  0.21369500  0.42990119
   0.07283499  0.20399901  0.56210012
   0.84426471  0.60008097  0.59940324
   0.62117943  0.33512375  0.41090545
   0.60266699  0.94671054  0.46722346
   0.03138539  0.25047370  0.38899188
   0.60893988  0.24951948  0.54807098
   0.13279973  0.99353852  0.47948708
   0.07979875  0.33507297  0.51230184
   0.37288419  0.15727726  0.56956279
   0.06595370  0.75137355  0.53564601
   0.66648838  0.47056875  0.43001156
   0.79885599  0.78436309  0.56463481
   0.70383856  0.01239230  0.47018456
   0.59703734  0.68822028  0.55423737
   0.72284030  0.34886852  0.45166811
   0.97704563  0.36979885  0.54705002
   0.15777596  0.68440620  0.57018388
   0.63333384  0.38196695  0.50780070
   0.81994620  0.45271333  0.60620765
   0.95857820  0.08242692  0.41695300
   0.28228799  0.25095485  0.51863066
   0.24925755  0.49821676  0.46105570
   0.27304521  0.90377932  0.56774453
   0.20366815  0.74075704  0.48688872
   0.14712345  0.53125375  0.49254493
   0.22497325  0.47861436  0.55683200
   0.91141698  0.50792847  0.47371881
   0.86978818  0.75974398  0.46415352
   0.73812021  0.14801849  0.44522965
   0.22218344  0.98496506  0.40794682
   0.25201746  0.45820875  0.64907044
   0.63043855  0.93811437  0.59397848
   0.41022327  0.84424626  0.42343739
   0.91777135  0.25122216  0.50824515
   0.13254706  0.49871998  0.33227266
   0.15514768  0.35870713  0.31056042
   0.37300515  0.18609091  0.34795342
   0.03458492  0.34796978  0.63320855
   0.57268926  0.31205206  0.32009968
   0.24577118  0.82763752  0.65016123
   0.20737430  0.70358892  0.31036906
   0.27537441  0.44737517  0.36737583
   0.36535081  0.65277050  0.34222079
   0.22638085  0.11136469  0.35811888
   0.24120334  0.25126210  0.32934297
   0.50127293  0.94748549  0.45484168
   0.55077284  0.88207510  0.53426376
   0.54705869  0.70780147  0.63684068
   0.47834251  0.17417923  0.59632798
   0.26172792  0.74916456  0.56953031
   0.44444589  0.89817885  0.58309740
   0.76511043  0.67171171  0.64966721
   0.84525270  0.88703222  0.62283959
   0.64185066  0.79474886  0.62117775
   0.00762132  0.08841149  0.60307972
   0.28520546  0.05538079  0.59380894
   0.50441962  0.02434607  0.62865669
   0.42862467  0.48412280  0.70765253
   0.08322528  0.66160417  0.40641308
   0.40958091  0.81752955  0.57508685
   0.84176382  0.49663699  0.46783897
   0.01708949  0.04566591  0.39361135
   0.01470021  0.33937414  0.39108141
   0.00907918  0.16981973  0.57225787
   0.61058277  0.71353636  0.61141867
   0.21405265  0.53134166  0.50964170
   0.91506213  0.81074481  0.49625454
   0.52057854  0.16563950  0.42598659
   0.41888941  0.22247273  0.58922932
   0.08345253  0.19435595  0.40698087
   0.70189793  0.10003013  0.48732303
   0.66505935  0.95322133  0.43747644
   0.65009874  0.55921093  0.43015089
   0.19846065  0.96766610  0.46399069
   0.21410198  0.42256799  0.60354190
   0.67419052  0.86908869  0.59457714
   0.21642535  0.69670174  0.53858426
   0.36878912  0.79031160  0.45920930
   0.79778531  0.94366966  0.59560782
   0.87957719  0.96729990  0.51193423
   0.57627238  0.63023244  0.51181039
   0.58983987  0.17020937  0.52533055
   0.85812234  0.20729710  0.49517595
   0.83506885  0.65898254  0.64584130
   0.13373852  0.41550277  0.35687228
   0.79065529  0.33512312  0.44187265
   0.39917610  0.23267871  0.39600320
   0.85579624  0.80519459  0.59651556
   0.28330833  0.98888231  0.54922176
   0.02307473  0.38563139  0.50224551
   0.57455938  0.75067395  0.43556436
   0.23024095  0.80778437  0.45196954
   0.59407495  0.33807778  0.54814305
   0.97524244  0.32784112  0.60244396
   0.88890636  0.08059287  0.42420019
   0.10475576  0.25025850  0.51784052
   0.04814566  0.78822096  0.48263019
   0.23206141  0.26121215  0.56098323
   0.56140781  0.31296914  0.38122611
   0.47923485  0.68444384  0.62972323
   0.28167586  0.82539101  0.59791211
   0.20850083  0.69858372  0.37179454
   0.74009987  0.76605675  0.53583451
   0.98630442  0.04517872  0.55051452
   0.70310456  0.79200202  0.43426040
   0.78836284  0.11429892  0.57665790
   0.45631390  0.38363547  0.40928789
   0.45050603  0.98784091  0.59500463
   0.50885018  0.09351548  0.58595382
   0.24424715  0.42559019  0.42094710
   0.65852534  0.38518598  0.45034791
   0.46125914  0.37022313  0.52844692
   0.33729937  0.64512641  0.39908301
   0.80293679  0.53191092  0.57961328
   0.06920979  0.95404303  0.48050551
   0.21190758  0.19963819  0.37359659
   0.07823286  0.54916887  0.49468762
   0.55757019  0.90752397  0.47473025
   0.71808917  0.63959124  0.60961385
   0.28664212  0.26528561  0.45911077
   0.08757125  0.68014936  0.56770167
   0.35427373  0.07158909  0.57874179
   0.49446794  0.52689327  0.57417159
   0.47483698  0.54433870  0.67924626
