 vasp.5.4.4.18Apr17-6-g9f103f2a35 (build Oct 20 2021 08:33:53) complex           
 executed on             LinuxGNU date 2024.04.02  17:56:14
 running on   32 total cores
 distrk:  each k-point on   32 cores,    1 groups
 distr:  one band on NCORES_PER_BAND=   4 cores,    8 groups


--------------------------------------------------------------------------------------------------------


 INCAR:
 POTCAR:    PAW_PBE C 08Apr2002                   
 POTCAR:    PAW_PBE H 15Jun2001                   
 POTCAR:    PAW_PBE O 08Apr2002                   
 POTCAR:    PAW_PBE Si 05Jan2001                  
 POTCAR:    PAW_PBE W 08Apr2002                   
 POTCAR:    PAW_PBE C 08Apr2002                   
   VRHFIN =C: s2p2                                                              
   LEXCH  = PE                                                                  
   EATOM  =   147.1560 eV,   10.8157 Ry                                         
                                                                                
   TITEL  = PAW_PBE C 08Apr2002                                                 
   LULTRA =        F    use ultrasoft PP ?                                      
   IUNSCR =        1    unscreen: 0-lin 1-nonlin 2-no                           
   RPACOR =    1.200    partial core radius                                     
   POMASS =   12.011; ZVAL   =    4.000    mass and valenz                      
   RCORE  =    1.500    outmost cutoff radius                                   
   RWIGS  =    1.630; RWIGS  =    0.863    wigner-seitz radius (au A)           
   ENMAX  =  400.000; ENMIN  =  300.000 eV                                      
   ICORE  =        2    local potential                                         
   LCOR   =        T    correct aug charges                                     
   LPAW   =        T    paw PP                                                  
   EAUG   =  644.873                                                            
   DEXC   =    0.000                                                            
   RMAX   =    1.529    core radius for proj-oper                               
   RAUG   =    1.300    factor for augmentation sphere                          
   RDEP   =    1.501    radius for radial grids                                 
   RDEPT  =    1.300    core radius for aug-charge                              
                                                                                
   Atomic configuration                                                         
    4 entries                                                                   
     n  l   j            E        occ.                                          
     1  0  0.50      -273.3789   2.0000                                         
     2  0  0.50       -13.7508   2.0000                                         
     2  1  0.50        -5.2854   2.0000                                         
     3  2  1.50        -5.4423   0.0000                                         
   Description                                                                  
     l       E           TYP  RCUT    TYP  RCUT                                 
     0    -13.7508458     23  1.200                                             
     0     -8.2022199     23  1.200                                             
     1     -5.2854383     23  1.500                                             
     1     34.0145650     23  1.500                                             
     2     -5.4423304      7  1.500                                             
  local pseudopotential read in
  partial core-charges read in
  partial kinetic energy density read in
  atomic valenz-charges read in
  non local Contribution for L=           0  read in
    real space projection operators read in
  non local Contribution for L=           0  read in
    real space projection operators read in
  non local Contribution for L=           1  read in
    real space projection operators read in
  non local Contribution for L=           1  read in
    real space projection operators read in
    PAW grid and wavefunctions read in

   number of l-projection  operators is LMAX  =           4
   number of lm-projection operators is LMMAX =           8

 POTCAR:    PAW_PBE H 15Jun2001                   
   VRHFIN =H: ultrasoft test                                                    
   LEXCH  = PE                                                                  
   EATOM  =    12.4884 eV,    0.9179 Ry                                         
                                                                                
   TITEL  = PAW_PBE H 15Jun2001                                                 
   LULTRA =        F    use ultrasoft PP ?                                      
   IUNSCR =        0    unscreen: 0-lin 1-nonlin 2-no                           
   RPACOR =    0.000    partial core radius                                     
   POMASS =    1.000; ZVAL   =    1.000    mass and valenz                      
   RCORE  =    1.100    outmost cutoff radius                                   
   RWIGS  =    0.700; RWIGS  =    0.370    wigner-seitz radius (au A)           
   ENMAX  =  250.000; ENMIN  =  200.000 eV                                      
   RCLOC  =    0.701    cutoff for local pot                                    
   LCOR   =        T    correct aug charges                                     
   LPAW   =        T    paw PP                                                  
   EAUG   =  400.000                                                            
   RMAX   =    1.123    core radius for proj-oper                               
   RAUG   =    1.200    factor for augmentation sphere                          
   RDEP   =    1.112    radius for radial grids                                 
   RDEPT  =    0.926    core radius for aug-charge                              
                                                                                
   Atomic configuration                                                         
    2 entries                                                                   
     n  l   j            E        occ.                                          
     1  0  0.50        -6.4927   1.0000                                         
     2  1  0.50        -3.4015   0.0000                                         
   Description                                                                  
     l       E           TYP  RCUT    TYP  RCUT                                 
     0     -6.4927494     23  1.100                                             
     0      6.8029130     23  1.100                                             
     1     -4.0817478     23  1.100                                             
  local pseudopotential read in
  atomic valenz-charges read in
  non local Contribution for L=           0  read in
    real space projection operators read in
  non local Contribution for L=           0  read in
    real space projection operators read in
  non local Contribution for L=           1  read in
    real space projection operators read in
    PAW grid and wavefunctions read in

   number of l-projection  operators is LMAX  =           3
   number of lm-projection operators is LMMAX =           5

 POTCAR:    PAW_PBE O 08Apr2002                   
   VRHFIN =O: s2p4                                                              
   LEXCH  = PE                                                                  
   EATOM  =   432.3788 eV,   31.7789 Ry                                         
                                                                                
   TITEL  = PAW_PBE O 08Apr2002                                                 
   LULTRA =        F    use ultrasoft PP ?                                      
   IUNSCR =        1    unscreen: 0-lin 1-nonlin 2-no                           
   RPACOR =    1.200    partial core radius                                     
   POMASS =   16.000; ZVAL   =    6.000    mass and valenz                      
   RCORE  =    1.520    outmost cutoff radius                                   
   RWIGS  =    1.550; RWIGS  =    0.820    wigner-seitz radius (au A)           
   ENMAX  =  400.000; ENMIN  =  300.000 eV                                      
   ICORE  =        2    local potential                                         
   LCOR   =        T    correct aug charges                                     
   LPAW   =        T    paw PP                                                  
   EAUG   =  605.392                                                            
   DEXC   =    0.000                                                            
   RMAX   =    1.553    core radius for proj-oper                               
   RAUG   =    1.300    factor for augmentation sphere                          
   RDEP   =    1.550    radius for radial grids                                 
   RDEPT  =    1.329    core radius for aug-charge                              
                                                                                
   Atomic configuration                                                         
    4 entries                                                                   
     n  l   j            E        occ.                                          
     1  0  0.50      -514.6923   2.0000                                         
     2  0  0.50       -23.9615   2.0000                                         
     2  1  0.50        -9.0305   4.0000                                         
     3  2  1.50        -9.5241   0.0000                                         
   Description                                                                  
     l       E           TYP  RCUT    TYP  RCUT                                 
     0    -23.9615318     23  1.200                                             
     0     -9.5240782     23  1.200                                             
     1     -9.0304911     23  1.520                                             
     1      8.1634956     23  1.520                                             
     2     -9.5240782      7  1.500                                             
  local pseudopotential read in
  partial core-charges read in
  partial kinetic energy density read in
  kinetic energy density of atom read in
  atomic valenz-charges read in
  non local Contribution for L=           0  read in
    real space projection operators read in
  non local Contribution for L=           0  read in
    real space projection operators read in
  non local Contribution for L=           1  read in
    real space projection operators read in
  non local Contribution for L=           1  read in
    real space projection operators read in
    PAW grid and wavefunctions read in

   number of l-projection  operators is LMAX  =           4
   number of lm-projection operators is LMMAX =           8

 POTCAR:    PAW_PBE Si 05Jan2001                  
   VRHFIN =Si: s2p2                                                             
   LEXCH  = PE                                                                  
   EATOM  =   103.0669 eV,    7.5752 Ry                                         
                                                                                
   TITEL  = PAW_PBE Si 05Jan2001                                                
   LULTRA =        F    use ultrasoft PP ?                                      
   IUNSCR =        1    unscreen: 0-lin 1-nonlin 2-no                           
   RPACOR =    1.500    partial core radius                                     
   POMASS =   28.085; ZVAL   =    4.000    mass and valenz                      
   RCORE  =    1.900    outmost cutoff radius                                   
   RWIGS  =    2.480; RWIGS  =    1.312    wigner-seitz radius (au A)           
   ENMAX  =  245.345; ENMIN  =  184.009 eV                                      
   ICORE  =        2    local potential                                         
   LCOR   =        T    correct aug charges                                     
   LPAW   =        T    paw PP                                                  
   EAUG   =  322.069                                                            
   DEXC   =    0.000                                                            
   RMAX   =    1.950    core radius for proj-oper                               
   RAUG   =    1.300    factor for augmentation sphere                          
   RDEP   =    1.993    radius for radial grids                                 
   RDEPT  =    1.837    core radius for aug-charge                              
                                                                                
   Atomic configuration                                                         
    6 entries                                                                   
     n  l   j            E        occ.                                          
     1  0  0.50     -1785.8828   2.0000                                         
     2  0  0.50      -139.4969   2.0000                                         
     2  1  1.50       -95.5546   6.0000                                         
     3  0  0.50       -10.8127   2.0000                                         
     3  1  0.50        -4.0811   2.0000                                         
     3  2  1.50        -4.0817   0.0000                                         
   Description                                                                  
     l       E           TYP  RCUT    TYP  RCUT                                 
     0    -10.8127223     23  1.900                                             
     0     -7.6451159     23  1.900                                             
     1     -4.0811372     23  1.900                                             
     1      2.4879257     23  1.900                                             
     2     -4.0817478      7  1.900                                             
  local pseudopotential read in
  partial core-charges read in
  partial kinetic energy density read in
  atomic valenz-charges read in
  non local Contribution for L=           0  read in
    real space projection operators read in
  non local Contribution for L=           0  read in
    real space projection operators read in
  non local Contribution for L=           1  read in
    real space projection operators read in
  non local Contribution for L=           1  read in
    real space projection operators read in
    PAW grid and wavefunctions read in

   number of l-projection  operators is LMAX  =           4
   number of lm-projection operators is LMMAX =           8

 POTCAR:    PAW_PBE W 08Apr2002                   
   VRHFIN =W : 6s5d                                                             
   LEXCH  = PE                                                                  
   EATOM  =   204.6103 eV,   15.0384 Ry                                         
                                                                                
   TITEL  = PAW_PBE W 08Apr2002                                                 
   LULTRA =        F    use ultrasoft PP ?                                      
   IUNSCR =        1    unscreen: 0-lin 1-nonlin 2-no                           
   RPACOR =    2.330    partial core radius                                     
   POMASS =  183.850; ZVAL   =    6.000    mass and valenz                      
   RCORE  =    2.750    outmost cutoff radius                                   
   RWIGS  =    2.750; RWIGS  =    1.455    wigner-seitz radius (au A)           
   ENMAX  =  223.057; ENMIN  =  167.293 eV                                      
   RCLOC  =    2.147    cutoff for local pot                                    
   LCOR   =        T    correct aug charges                                     
   LPAW   =        T    paw PP                                                  
   EAUG   =  373.438                                                            
   DEXC   =    0.000                                                            
   RMAX   =    2.801    core radius for proj-oper                               
   RAUG   =    1.300    factor for augmentation sphere                          
   RDEP   =    2.886    radius for radial grids                                 
   RDEPT  =    2.230    core radius for aug-charge                              
                                                                                
   Atomic configuration                                                         
   16 entries                                                                   
     n  l   j            E        occ.                                          
     1  0  0.50    -69465.5836   2.0000                                         
     2  0  0.50    -11986.2642   2.0000                                         
     2  1  1.50    -10479.8616   6.0000                                         
     3  0  0.50     -2759.0758   2.0000                                         
     3  1  1.50     -2313.1857   6.0000                                         
     3  2  2.50     -1801.1185  10.0000                                         
     4  0  0.50      -567.6791   2.0000                                         
     4  1  1.50      -421.4694   6.0000                                         
     4  2  2.50      -236.3473  10.0000                                         
     4  3  3.50       -31.2666  14.0000                                         
     5  0  0.50       -77.1085   2.0000                                         
     5  1  1.50       -41.3856   6.0000                                         
     5  2  2.50        -3.3185   5.0000                                         
     6  0  0.50        -5.1438   1.0000                                         
     6  1  0.50        -3.8096   0.0000                                         
     5  3  2.50        -1.3606   0.0000                                         
   Description                                                                  
     l       E           TYP  RCUT    TYP  RCUT                                 
     2     -3.3185288     23  2.500                                             
     2     -1.5965414     23  2.500                                             
     0     -5.1438054     23  2.500                                             
     0      4.9117504     23  2.500                                             
     1      2.7211652     23  2.750                                             
     1     27.2116520     23  2.750                                             
  local pseudopotential read in
  partial core-charges read in
  partial kinetic energy density read in
  atomic valenz-charges read in
  non local Contribution for L=           2  read in
    real space projection operators read in
  non local Contribution for L=           2  read in
    real space projection operators read in
  non local Contribution for L=           0  read in
    real space projection operators read in
  non local Contribution for L=           0  read in
    real space projection operators read in
  non local Contribution for L=           1  read in
    real space projection operators read in
  non local Contribution for L=           1  read in
    real space projection operators read in
    PAW grid and wavefunctions read in

   number of l-projection  operators is LMAX  =           6
   number of lm-projection operators is LMMAX =          18

 Optimization of the real space projectors (new method)

 maximal supplied QI-value         = 25.13
 optimisation between [QCUT,QGAM] = [ 11.31, 22.87] = [ 35.82,146.48] Ry 
 Optimized for a Real-space Cutoff    1.00 Angstroem

   l    n(q)    QCUT    max X(q) W(low)/X(q) W(high)/X(q)  e(spline) 
   0      7    11.310   115.676    0.43E-03    0.13E-02    0.19E-06
   0      7    11.310    87.132    0.43E-03    0.13E-02    0.18E-06
   1      6    11.310     4.429    0.42E-03    0.74E-03    0.11E-06
   1      6    11.310     2.733    0.34E-03    0.55E-03    0.92E-07
 Optimization of the real space projectors (new method)

 maximal supplied QI-value         = 34.20
 optimisation between [QCUT,QGAM] = [ 11.29, 22.57] = [ 35.68,142.71] Ry 
 Optimized for a Real-space Cutoff    1.16 Angstroem

   l    n(q)    QCUT    max X(q) W(low)/X(q) W(high)/X(q)  e(spline) 
   0      8    11.287    19.460    0.40E-03    0.73E-03    0.16E-06
   0      8    11.287    12.209    0.38E-03    0.70E-03    0.15E-06
   1      7    11.287     4.655    0.22E-03    0.25E-04    0.22E-06
 Optimization of the real space projectors (new method)

 maximal supplied QI-value         = 24.76
 optimisation between [QCUT,QGAM] = [ 11.39, 22.77] = [ 36.31,145.25] Ry 
 Optimized for a Real-space Cutoff    1.00 Angstroem

   l    n(q)    QCUT    max X(q) W(low)/X(q) W(high)/X(q)  e(spline) 
   0      7    11.387    20.381    0.39E-03    0.13E-02    0.15E-06
   0      7    11.387    15.268    0.42E-03    0.14E-02    0.17E-06
   1      6    11.387     5.964    0.41E-03    0.11E-02    0.17E-06
   1      6    11.387     5.382    0.39E-03    0.87E-03    0.15E-06
 Optimization of the real space projectors (new method)

 maximal supplied QI-value         = 19.84
 optimisation between [QCUT,QGAM] = [ 11.31, 22.82] = [ 35.82,145.81] Ry 
 Optimized for a Real-space Cutoff    1.16 Angstroem

   l    n(q)    QCUT    max X(q) W(low)/X(q) W(high)/X(q)  e(spline) 
   0      8    11.310   159.560    0.27E-03    0.30E-03    0.39E-07
   0      8    11.310   115.863    0.27E-03    0.30E-03    0.38E-07
   1      7    11.310    88.339    0.28E-03    0.28E-03    0.77E-07
   1      7    11.310    48.592    0.27E-03    0.27E-03    0.74E-07
 Optimization of the real space projectors (new method)

 maximal supplied QI-value         = 13.61
 optimisation between [QCUT,QGAM] = [ 11.43, 22.86] = [ 36.58,146.31] Ry 
 Optimized for a Real-space Cutoff    1.56 Angstroem

   l    n(q)    QCUT    max X(q) W(low)/X(q) W(high)/X(q)  e(spline) 
   2     10    11.429   130.855    0.22E-03    0.64E-03    0.11E-05
   2     10    11.429   114.007    0.22E-03    0.64E-03    0.11E-05
   0     11    11.429    84.709    0.39E-04    0.67E-04    0.23E-06
   0     11    11.429    49.163    0.35E-04    0.62E-04    0.21E-06
   1     10    11.429    15.765    0.84E-04    0.15E-03    0.24E-06
   1     10    11.429    10.638    0.58E-04    0.12E-03    0.19E-06

 ----------------------------------------------------------------------------- 
|                                                                             |
|  ADVICE TO THIS USER RUNNING 'VASP/VAMP'   (HEAR YOUR MASTER'S VOICE ...):  |
|                                                                             |
|      You enforced a specific xc-type in the INCAR file,                     |
|      a different type was found on the POTCAR file                          |
|          I HOPE YOU KNOW, WHAT YOU ARE  DOING                               |
|                                                                             |
 ----------------------------------------------------------------------------- 

  PAW_PBE C 08Apr2002                   :
 energy of atom  1       EATOM= -147.1560
 kinetic energy error for atom=    0.0076 (will be added to EATOM!!)
  PAW_PBE H 15Jun2001                   :
 energy of atom  2       EATOM=  -12.4884
 kinetic energy error for atom=    0.0020 (will be added to EATOM!!)
  PAW_PBE O 08Apr2002                   :
 energy of atom  3       EATOM= -432.3788
 kinetic energy error for atom=    0.0224 (will be added to EATOM!!)
  PAW_PBE Si 05Jan2001                  :
 energy of atom  4       EATOM= -103.0669
 kinetic energy error for atom=    0.0006 (will be added to EATOM!!)
  PAW_PBE W 08Apr2002                   :
 energy of atom  5       EATOM= -204.6103
 kinetic energy error for atom=    0.0017 (will be added to EATOM!!)


 POSCAR:  C  H  O Si  W                          
  positions in direct lattice
  velocities in cartesian coordinates
 exchange correlation table for  LEXCH =        9
   RHO(1)=    0.500       N(1)  =     2000
   RHO(2)=  100.500       N(2)  =     4000

 VTST: version 3.2, (02/03/18)

 CHAIN: initializing optimizer
 
 OPT: Using Conjugate-Gradient optimizer
 OPT: CG, Init
 OPT: CG, FDSTEP      0.005000
 OPT: CG, MAXMOVE      0.200000
 
 CHAIN: Read ICHAIN            2

 POSCAR:  C  H  O Si  W                          
  positions in direct lattice
  velocities in cartesian coordinates
 CHAIN: Running the Dimer method

 Dimer: -----------------
 Dimer: Input Parameters
 Dimer:   Seed      0
 Dimer: RotMax      4
 Dimer:     dR      0.005000
 Dimer:  FNMax      1.000000
 Dimer:  FNMin      0.010000
 Dimer: -----------------



--------------------------------------------------------------------------------------------------------


 ion  position               nearest neighbor table
   1  0.551  0.534  0.789-  47 1.09  48 1.09   2 1.42
   2  0.567  0.516  0.740-  50 1.10  49 1.19   1 1.42 270 2.04
   3  0.761  0.104  0.651- 125 0.97
   4  0.926  0.279  0.356-  73 0.98
   5  0.793  0.207  0.373- 108 0.97
   6  0.975  0.944  0.325- 117 0.97
   7  0.626  0.963  0.375- 119 0.98
   8  0.821  0.995  0.369- 137 0.97
   9  0.750  0.141  0.458- 175 0.98
  10  0.915  0.249  0.509- 180 0.97
  11  0.583  0.304  0.306- 185 0.97
  12  0.891  0.335  0.616-  91 0.98
  13  0.588  0.359  0.615- 136 0.97
  14  0.593  0.871  0.578- 178 0.99
  15  0.034  0.338  0.652- 184 0.97
  16  0.935  0.420  0.454- 173 0.98
  17  0.746  0.530  0.422-  87 1.00
  18  0.798  0.382  0.635- 165 0.97
  19  0.591  0.569  0.378-  99 0.99
  20  0.718  0.646  0.383- 122 0.99
  21  0.841  0.542  0.420- 128 0.98
  22  0.005  0.604  0.358- 133 0.97
  23  0.828  0.712  0.468- 174 0.99
  24  0.876  0.599  0.722-  53 0.97
  25  0.520  0.986  0.422- 135 0.99
  26  0.223  0.980  0.393- 176 1.00
  27  0.216  0.238  0.319- 191 0.99
  28  0.158  0.330  0.279- 182 0.97
  29  0.342  0.156  0.331- 183 0.98
  30  0.223  0.046  0.323- 190 0.97
  31  0.511  0.826  0.547- 193 0.97
  32  0.373  0.236  0.648-  78 0.97
  33  0.244  0.093  0.599- 129 0.98
  34  0.315  0.487  0.442-  52 0.99
  35  0.409  0.439  0.406- 141 0.98
  36  0.398  0.793  0.389- 179 0.97
  37  0.244  0.655  0.294- 187 0.97
  38  0.312  0.418  0.369- 188 0.98
  39  0.405  0.584  0.339- 189 0.97
  40  0.139  0.488  0.352- 181 0.98
  41  0.593  0.698  0.352-  82 0.97
  42  0.469  0.861  0.444- 192 0.99
  43  0.122  0.323  0.612- 101 0.97
  44  0.072  0.666  0.646- 132 0.97
  45  0.240  0.387  0.683- 177 0.97
  46  0.247  0.816  0.669- 186 0.97
  47  0.526  0.497  0.812-   1 1.09
  48  0.570  0.582  0.807-   1 1.09
  49  0.573  0.454  0.726-   2 1.19 270 2.13
  50  0.599  0.551  0.721-   2 1.10
  51  0.369  0.648  0.439- 224 1.66 259 1.68
  52  0.347  0.504  0.420-  34 0.99 259 1.67
  53  0.861  0.566  0.697-  24 0.97 230 1.64
  54  0.349  0.959  0.530- 235 1.68 268 1.70
  55  0.033  0.932  0.529- 250 1.63 261 1.66
  56  0.636  0.079  0.489- 228 1.60 217 1.65
  57  0.069  0.052  0.395- 216 1.64 208 1.65
  58  0.452  0.130  0.421- 233 1.65 214 1.65
  59  0.806  0.214  0.483- 232 1.67 229 1.69
  60  0.973  0.182  0.599- 210 1.63 240 1.65
  61  0.275  0.299  0.449- 256 1.65 266 1.66
  62  0.556  0.775  0.442- 237 1.51 264 1.66
  63  0.392  0.973  0.619- 254 1.65 268 1.66
  64  0.178  0.350  0.405- 256 1.66 231 1.67
  65  0.866  0.684  0.637- 234 1.64 230 1.65
  66  0.866  0.967  0.467- 226 1.60 241 1.65
  67  0.301  0.761  0.458- 224 1.65 238 1.67
  68  0.422  0.261  0.380- 233 1.67 253 1.67
  69  0.811  0.465  0.520- 260 1.63 207 1.64
  70  0.984  0.073  0.521- 250 1.68 210 1.69
  71  0.514  0.465  0.627- 269 1.67 270 1.98
  72  0.035  0.920  0.429- 261 1.64 208 1.65
  73  0.963  0.303  0.351-   4 0.98 209 1.65
  74  0.070  0.336  0.376- 209 1.64 231 1.65
  75  0.208  0.729  0.395- 238 1.66 248 1.67
  76  0.039  0.419  0.499- 263 1.64 236 1.65
  77  0.240  0.286  0.588- 244 1.63 221 1.63
  78  0.399  0.195  0.645-  32 0.97 215 1.64
  79  0.453  0.564  0.579- 246 1.68 269 1.68
  80  0.910  0.749  0.557- 234 1.64 213 1.65
  81  0.869  0.108  0.442- 241 1.64 229 1.65
  82  0.573  0.667  0.376-  41 0.97 237 1.68
  83  0.142  0.159  0.376- 262 1.65 216 1.65
  84  0.351  0.765  0.607- 206 1.62 247 1.64
  85  0.911  0.845  0.483- 226 1.62 213 1.66
  86  0.061  0.537  0.442- 263 1.66 205 1.67
  87  0.708  0.555  0.420-  17 1.00 219 1.67
  88  0.075  0.817  0.483- 261 1.50 243 1.65
  89  0.700  0.828  0.433- 218 1.53 251 1.65
  90  0.730  0.049  0.543- 217 1.64 252 1.64
  91  0.919  0.302  0.632-  12 0.98 240 1.63
  92  0.735  0.853  0.613- 225 1.66 222 1.68
  93  0.625  0.527  0.486- 227 1.58 219 1.68
  94  0.557  0.630  0.467- 237 1.52 227 1.63
  95  0.425  0.247  0.555- 258 1.68 215 1.68
  96  0.978  0.728  0.477- 243 1.65 213 1.65
  97  0.654  0.594  0.633- 265 1.65 211 1.67
  98  0.397  0.747  0.515- 206 1.66 224 1.66
  99  0.603  0.518  0.386-  19 0.99 219 1.65
 100  0.720  0.631  0.557- 249 1.63 265 1.64
 101  0.147  0.364  0.620-  43 0.97 221 1.64
 102  0.066  0.549  0.542- 263 1.63 267 1.64
 103  0.819  0.885  0.537- 226 1.65 225 1.67
 104  0.828  0.355  0.452- 232 1.65 207 1.65
 105  0.527  0.299  0.533- 258 1.62 239 1.63
 106  0.737  0.499  0.596- 265 1.65 260 1.66
 107  0.557  0.172  0.395- 245 1.59 214 1.64
 108  0.806  0.256  0.383-   5 0.97 232 1.67
 109  0.237  0.953  0.508- 235 1.58 220 1.67
 110  0.693  0.776  0.541- 249 1.64 222 1.64
 111  0.924  0.950  0.553- 250 1.65 226 1.65
 112  0.526  0.318  0.399- 245 1.45 253 1.66
 113  0.469  0.991  0.546- 254 1.69 255 1.70
 114  0.838  0.095  0.540- 229 1.66 252 1.66
 115  0.538  0.116  0.486- 228 1.61 214 1.67
 116  0.350  0.187  0.440- 266 1.63 233 1.65
 117  0.012  0.962  0.335-   6 0.97 208 1.65
 118  0.457  0.590  0.674- 246 1.65 270 1.97
 119  0.655  0.925  0.379-   7 0.98 218 1.66
 120  0.076  0.686  0.436- 205 1.65 243 1.66
 121  0.452  0.405  0.553- 269 1.68 258 1.70
 122  0.719  0.700  0.380-  20 0.99 251 1.65
 123  0.451  0.706  0.600- 206 1.63 246 1.63
 124  0.753  0.709  0.476- 249 1.63 251 1.69
 125  0.779  0.121  0.621-   3 0.97 252 1.64
 126  0.993  0.308  0.448- 236 1.66 209 1.68
 127  0.533  0.508  0.530- 269 1.64 227 1.65
 128  0.817  0.499  0.423-  21 0.98 207 1.69
 129  0.236  0.145  0.605-  33 0.98 244 1.62
 130  0.204  0.831  0.471- 220 1.50 238 1.63
 131  0.240  0.559  0.523- 223 1.65 212 1.66
 132  0.061  0.625  0.624-  44 0.97 267 1.63
 133  0.046  0.602  0.354-  22 0.97 205 1.65
 134  0.801  0.979  0.606- 225 1.66 252 1.68
 135  0.538  0.028  0.405-  25 0.99 214 1.66
 136  0.606  0.313  0.605-  13 0.97 239 1.64
 137  0.862  0.004  0.369-   8 0.97 241 1.66
 138  0.095  0.149  0.467- 242 1.62 216 1.65
 139  0.171  0.204  0.531- 242 1.61 244 1.63
 140  0.641  0.704  0.455- 237 1.65 251 1.66
 141  0.437  0.410  0.386-  35 0.98 253 1.66
 142  0.574  0.059  0.571- 255 1.62 228 1.65
 143  0.151  0.593  0.389- 248 1.68 205 1.68
 144  0.268  0.602  0.392- 259 1.65 248 1.67
 145  0.440  0.322  0.470- 258 1.64 253 1.69
 146  0.238  0.159  0.430- 262 1.65 266 1.67
 147  0.073  0.150  0.563- 242 1.64 210 1.64
 148  0.845  0.544  0.600- 230 1.66 260 1.66
 149  0.621  0.280  0.411- 257 1.65 245 1.66
 150  0.603  0.892  0.467- 264 1.29 218 1.67
 151  0.031  0.195  0.389- 209 1.66 216 1.66
 152  0.608  0.196  0.547- 228 1.62 239 1.64
 153  0.133  0.938  0.479- 261 1.65 220 1.66
 154  0.080  0.280  0.512- 236 1.64 242 1.65
 155  0.373  0.105  0.568- 268 1.63 215 1.69
 156  0.066  0.697  0.536- 243 1.63 267 1.63
 157  0.666  0.415  0.430- 219 1.65 257 1.65
 158  0.799  0.730  0.564- 249 1.61 234 1.63
 159  0.704  0.957  0.470- 217 1.65 218 1.66
 160  0.599  0.634  0.553- 227 1.63 211 1.63
 161  0.723  0.294  0.452- 232 1.63 257 1.64
 162  0.978  0.314  0.547- 236 1.64 240 1.67
 163  0.158  0.630  0.571- 223 1.63 267 1.65
 164  0.633  0.327  0.508- 239 1.63 257 1.65
 165  0.820  0.396  0.605-  18 0.97 260 1.65
 166  0.959  0.027  0.417- 241 1.64 208 1.65
 167  0.282  0.195  0.519- 266 1.63 244 1.65
 168  0.249  0.443  0.461- 212 1.66 256 1.71
 169  0.273  0.850  0.568- 235 1.64 247 1.65
 170  0.204  0.686  0.487- 223 1.63 238 1.66
 171  0.147  0.476  0.493- 212 1.63 263 1.65
 172  0.225  0.423  0.557- 212 1.61 221 1.64
 173  0.911  0.453  0.474-  16 0.98 207 1.65
 174  0.870  0.705  0.464-  23 0.99 213 1.65
 175  0.738  0.093  0.445-   9 0.98 217 1.66
 176  0.222  0.930  0.408-  26 1.00 220 1.64
 177  0.252  0.402  0.650-  45 0.97 221 1.65
 178  0.630  0.883  0.593-  14 0.99 222 1.62
 179  0.410  0.789  0.423-  36 0.97 224 1.68
 180  0.918  0.196  0.508-  10 0.97 229 1.65
 181  0.133  0.444  0.332-  40 0.98 231 1.65
 182  0.155  0.304  0.311-  28 0.97 231 1.69
 183  0.373  0.131  0.348-  29 0.98 233 1.66
 184  0.035  0.292  0.634-  15 0.97 240 1.66
 185  0.573  0.257  0.320-  11 0.97 245 1.66
 186  0.245  0.771  0.650-  46 0.97 247 1.64
 187  0.207  0.648  0.310-  37 0.97 248 1.65
 188  0.275  0.392  0.367-  38 0.98 256 1.66
 189  0.365  0.598  0.342-  39 0.97 259 1.67
 190  0.226  0.056  0.358-  30 0.97 262 1.69
 191  0.241  0.196  0.329-  27 0.99 262 1.66
 192  0.501  0.892  0.455-  42 0.99 264 1.60
 193  0.550  0.828  0.534-  31 0.97 264 1.67
 194  0.545  0.646  0.633- 211 1.65 246 1.68
 195  0.479  0.123  0.596- 215 1.65 255 1.65
 196  0.262  0.694  0.569- 247 1.65 223 1.65
 197  0.442  0.848  0.581- 254 1.65 206 1.68
 198  0.765  0.617  0.650- 265 1.65 230 1.66
 199  0.845  0.832  0.623- 234 1.66 225 1.68
 200  0.640  0.739  0.621- 211 1.67 222 1.71
 201  0.008  0.033  0.603- 210 1.69 250 1.69
 202  0.285  0.002  0.593- 268 1.69 235 1.70
 203  0.503  0.972  0.629- 254 1.69 255 1.70
 204  0.456  0.439  0.729- 270 1.71
 205  0.083  0.606  0.406- 133 1.65 120 1.65  86 1.67 143 1.68 263 3.13
 206  0.409  0.766  0.574-  84 1.62 123 1.63  98 1.66 197 1.68 247 3.05
 207  0.842  0.441  0.468-  69 1.64 104 1.65 173 1.65 128 1.69
 208  0.017  0.990  0.394-  57 1.65 166 1.65  72 1.65 117 1.65 261 3.11 216 3.13
 209  0.015  0.284  0.391-  74 1.64  73 1.65 151 1.66 126 1.68 236 3.11 216 3.11
 210  0.009  0.115  0.573-  60 1.63 147 1.64  70 1.69 201 1.69 250 2.39 242 3.05 240 3.07
 211  0.610  0.658  0.610- 160 1.63 194 1.65 200 1.67  97 1.67 265 2.87 227 3.15
 212  0.214  0.476  0.510- 172 1.61 171 1.63 131 1.66 168 1.66 223 3.10 256 3.14
 213  0.915  0.756  0.496-  96 1.65 174 1.65  80 1.65  85 1.66 226 2.99 234 3.03
 214  0.521  0.110  0.426- 107 1.64  58 1.65 135 1.66 115 1.67 245 3.08 228 3.12
 215  0.419  0.170  0.589-  78 1.64 195 1.65  95 1.68 155 1.69 268 3.13 255 3.14
 216  0.083  0.139  0.407-  57 1.64 138 1.65  83 1.65 151 1.66 209 3.11 208 3.13 262 3.14
 217  0.702  0.045  0.487-  90 1.64 159 1.65  56 1.65 175 1.66 228 3.09 218 3.10 252 3.15
 218  0.665  0.898  0.437-  89 1.53 159 1.66 119 1.66 150 1.67 264 2.83 251 3.06 217 3.10
 219  0.650  0.504  0.430-  99 1.65 157 1.65  87 1.67  93 1.68 227 3.07
 220  0.198  0.912  0.464- 130 1.50 176 1.64 153 1.66 109 1.67 238 3.01 235 3.06 261 3.07
 221  0.214  0.366  0.604-  77 1.63 172 1.64 101 1.64 177 1.65
 222  0.674  0.814  0.595- 178 1.62 110 1.64  92 1.68 200 1.71 249 2.90
 223  0.217  0.642  0.539- 170 1.63 163 1.63 196 1.65 131 1.65 238 3.09 212 3.10 267 3.12
 224  0.369  0.735  0.459-  67 1.65  98 1.66  51 1.66 179 1.68
 225  0.797  0.889  0.596- 134 1.66  92 1.66 103 1.67 199 1.68 234 2.86 226 2.99 252 3.15
 226  0.880  0.912  0.512-  66 1.60  85 1.62 103 1.65 111 1.65 213 2.99 225 2.99 250 3.05 241 3.13

 227  0.576  0.574  0.512-  93 1.58  94 1.63 160 1.63 127 1.65 237 3.00 219 3.07 269 3.15 211 3.15

 228  0.590  0.116  0.525-  56 1.60 115 1.61 152 1.62 142 1.65 255 2.85 217 3.09 239 3.12 214 3.12

 229  0.858  0.152  0.495- 180 1.65  81 1.65 114 1.66  59 1.69 241 3.07 232 3.15
 230  0.835  0.604  0.646-  53 1.64  65 1.65 148 1.66 198 1.66 265 2.93 234 3.01 260 3.01
 231  0.134  0.360  0.357- 181 1.65  74 1.65  64 1.67 182 1.69 256 3.11
 232  0.791  0.280  0.442- 161 1.63 104 1.65 108 1.67  59 1.67 229 3.15
 233  0.399  0.177  0.396-  58 1.65 116 1.65 183 1.66  68 1.67 253 3.07
 234  0.856  0.750  0.597- 158 1.63  80 1.64  65 1.64 199 1.66 225 2.86 230 3.01 213 3.03
 235  0.283  0.935  0.549- 109 1.58 169 1.64  54 1.68 202 1.70 268 2.38 220 3.06
 236  0.023  0.330  0.502- 154 1.64 162 1.64  76 1.65 126 1.66 240 3.11 209 3.11 242 3.13
 237  0.575  0.695  0.436-  62 1.51  94 1.52 140 1.65  82 1.68 227 3.00 264 3.06 251 3.10
 238  0.230  0.753  0.452- 130 1.63 170 1.66  75 1.66  67 1.67 248 2.97 220 3.01 223 3.09
 239  0.594  0.284  0.548- 164 1.63 105 1.63 152 1.64 136 1.64 228 3.12
 240  0.975  0.272  0.603-  91 1.63  60 1.65 184 1.66 162 1.67 210 3.07 236 3.11
 241  0.889  0.025  0.424-  81 1.64 166 1.64  66 1.65 137 1.66 229 3.07 226 3.13
 242  0.105  0.195  0.518- 139 1.61 138 1.62 147 1.64 154 1.65 210 3.05 236 3.13
 243  0.048  0.733  0.483- 156 1.63  96 1.65  88 1.65 120 1.66 261 3.05 267 3.15
 244  0.232  0.206  0.561- 129 1.62  77 1.63 139 1.63 167 1.65 266 3.02
 245  0.561  0.258  0.381- 112 1.45 107 1.59 149 1.66 185 1.66 253 2.87 214 3.08
 246  0.476  0.627  0.620- 123 1.63 118 1.65  79 1.68 194 1.68 269 2.94 270 3.11
 247  0.281  0.771  0.597- 186 1.64  84 1.64 196 1.65 169 1.65 206 3.05
 248  0.209  0.643  0.372- 187 1.65 144 1.67  75 1.67 143 1.68 238 2.97
 249  0.740  0.711  0.536- 158 1.61 124 1.63 100 1.63 110 1.64 222 2.90 251 2.91 265 3.07
 250  0.987  0.991  0.550-  55 1.63 111 1.65  70 1.68 201 1.69 210 2.39 226 3.05
 251  0.703  0.737  0.434-  89 1.65 122 1.65 140 1.66 124 1.69 249 2.91 218 3.06 237 3.10
 252  0.788  0.059  0.577-  90 1.64 125 1.64 114 1.66 134 1.68 225 3.15 217 3.15
 253  0.456  0.328  0.409- 141 1.66 112 1.66  68 1.67 145 1.69 245 2.87 233 3.07
 254  0.450  0.937  0.594-  63 1.65 197 1.65 113 1.69 203 1.69 255 2.36 268 2.75
 255  0.509  0.041  0.586- 142 1.62 195 1.65 113 1.70 203 1.70 254 2.36 228 2.85 215 3.14
 256  0.244  0.370  0.421-  61 1.65  64 1.66 188 1.66 168 1.71 231 3.11 212 3.14
 257  0.659  0.330  0.450- 161 1.64 149 1.65 157 1.65 164 1.65
 258  0.460  0.318  0.529- 105 1.62 145 1.64  95 1.68 121 1.70
 259  0.337  0.590  0.399- 144 1.65 189 1.67  52 1.67  51 1.68
 260  0.803  0.476  0.580-  69 1.63 165 1.65 148 1.66 106 1.66 265 2.91 230 3.01
 261  0.069  0.899  0.481-  88 1.50  72 1.64 153 1.65  55 1.66 243 3.05 220 3.07 208 3.11
 262  0.212  0.144  0.374-  83 1.65 146 1.65 191 1.66 190 1.69 266 3.12 216 3.14
 263  0.078  0.494  0.495- 102 1.63  76 1.64 171 1.65  86 1.66 267 3.10 205 3.13
 264  0.558  0.852  0.475- 150 1.29 192 1.60  62 1.66 193 1.67 218 2.83 237 3.06
 265  0.718  0.585  0.610- 100 1.64 198 1.65  97 1.65 106 1.65 211 2.87 260 2.91 230 2.93 249 3.07

 266  0.287  0.210  0.459- 167 1.63 116 1.63  61 1.66 146 1.67 244 3.02 262 3.12
 267  0.088  0.626  0.568- 156 1.63 132 1.63 102 1.64 163 1.65 263 3.10 223 3.12 243 3.15
 268  0.353  0.020  0.578- 155 1.63  63 1.66 202 1.69  54 1.70 235 2.38 254 2.75 215 3.13
 269  0.486  0.482  0.572- 127 1.64  71 1.67 121 1.68  79 1.68 246 2.94 227 3.15
 270  0.497  0.500  0.696- 204 1.71 118 1.97  71 1.98   2 2.04  49 2.13 246 3.11

  LATTYP: Found a simple orthorhombic cell.
 ALAT       =    18.1212369514
 B/A-ratio  =     1.2919258579
 C/A-ratio  =     1.4835282260
  
  Lattice vectors:
  
 A1 = (   0.0000000000, -18.1212369514,   0.0000000000)
 A2 = ( -23.4112945954,   0.0000000000,   0.0000000000)
 A3 = (   0.0000000000,   0.0000000000, -26.8833665073)


Analysis of symmetry for initial positions (statically):
=====================================================================
 Subroutine PRICEL returns:
 Original cell was already a primitive cell.
 

 Routine SETGRP: Setting up the symmetry group for a 
 simple orthorhombic supercell.


 Subroutine GETGRP returns: Found  1 space group operations
 (whereof  1 operations were pure point group operations)
 out of a pool of  8 trial point group operations.


The static configuration has the point symmetry C_1 .


Analysis of symmetry for dynamics (positions and initial velocities):
=====================================================================
 Subroutine PRICEL returns:
 Original cell was already a primitive cell.
 

 Routine SETGRP: Setting up the symmetry group for a 
 simple orthorhombic supercell.


 Subroutine GETGRP returns: Found  1 space group operations
 (whereof  1 operations were pure point group operations)
 out of a pool of  8 trial point group operations.


The dynamic configuration has the point symmetry C_1 .


Analysis of constrained symmetry for selective dynamics:
=====================================================================
 Subroutine PRICEL returns:
 Original cell was already a primitive cell.
 

 Routine SETGRP: Setting up the symmetry group for a 
 simple orthorhombic supercell.


 Subroutine GETGRP returns: Found  1 space group operations
 (whereof  1 operations were pure point group operations)
 out of a pool of  8 trial point group operations.


The constrained configuration has the point symmetry C_1 .


 Subroutine INISYM returns: Found  1 space group operations
 (whereof  1 operations are pure point group operations),
 and found     1 'primitive' translations



 KPOINTS: KPOINTS created by Atomic Simulation Env

Automatic generation of k-mesh.
Space group operators:
 irot       det(A)        alpha          n_x          n_y          n_z        tau_x        tau_y        tau_z
    1     1.000000     0.000001     1.000000     0.000000     0.000000     0.000000     0.000000     0.000000
 
 Subroutine IBZKPT returns following result:
 ===========================================
 
 Found      5 irreducible k-points:
 
 Following reciprocal coordinates:
            Coordinates               Weight
  0.000000  0.000000  0.000000      1.000000
  0.333333  0.000000  0.000000      2.000000
  0.000000  0.333333  0.000000      2.000000
  0.333333  0.333333  0.000000      2.000000
 -0.333333  0.333333  0.000000      2.000000
 
 Following cartesian coordinates:
            Coordinates               Weight
  0.000000  0.000000  0.000000      1.000000
  0.014238  0.000000  0.000000      2.000000
  0.000000  0.018395  0.000000      2.000000
  0.014238  0.018395  0.000000      2.000000
 -0.014238  0.018395  0.000000      2.000000
 


--------------------------------------------------------------------------------------------------------




 Dimension of arrays:
   k-points           NKPTS =      5   k-points in BZ     NKDIM =      5   number of bands    NBANDS=    760
   number of dos      NEDOS =    301   number of ions     NIONS =    270
   non local maximal  LDIM  =      6   non local SUM 2l+1 LMDIM =     18
   total plane-waves  NPLWV = ******
   max r-space proj   IRMAX =   2748   max aug-charges    IRDMAX=   9808
   dimension x,y,z NGX =   128 NGY =  100 NGZ =  150
   dimension x,y,z NGXF=   256 NGYF=  200 NGZF=  300
   support grid    NGXF=   256 NGYF=  200 NGZF=  300
   ions per type =               2  48 154  65   1
   NGX,Y,Z   is equivalent  to a cutoff of   9.09,  9.17,  9.28 a.u.
   NGXF,Y,Z  is equivalent  to a cutoff of  18.18, 18.35, 18.55 a.u.

 SYSTEM =  unknown system                          
 POSCAR =   C  H  O Si  W                          

 Startparameter for this run:
   NWRITE =      2    write-flag & timer
   PREC   = normal    normal or accurate (medium, high low for compatibility)
   ISTART =      0    job   : 0-new  1-cont  2-samecut
   ICHARG =      2    charge: 1-file 2-atom 10-const
   ISPIN  =      1    spin polarized calculation?
   LNONCOLLINEAR =      F non collinear calculations
   LSORBIT =      F    spin-orbit coupling
   INIWAV =      1    electr: 0-lowe 1-rand  2-diag
   LASPH  =      T    aspherical Exc in radial PAW
   METAGGA=      F    non-selfconsistent MetaGGA calc.

 Electronic Relaxation 1
   ENCUT  =  500.0 eV  36.75 Ry    6.06 a.u.  42.68 33.04 49.01*2*pi/ulx,y,z
   ENINI  =  500.0     initial cutoff
   ENAUG  =  644.9 eV  augmentation charge cutoff
   NELM   =     60;   NELMIN=  2; NELMDL=  0     # of ELM steps 
   EDIFF  = 0.1E-06   stopping-criterion for ELM
   LREAL  =      T    real-space projection
   NLSPLINE    = F    spline interpolate recip. space projectors
   LCOMPAT=      F    compatible to vasp.4.4
   GGA_COMPAT  = T    GGA compatible to vasp.4.4-vasp.4.6
   LMAXPAW     = -100 max onsite density
   LMAXMIX     =    2 max onsite mixed and CHGCAR
   VOSKOWN=      0    Vosko Wilk Nusair interpolation
   ROPT   =   -0.00050  -0.00050  -0.00050  -0.00050
   ROPT   =   -0.00050
 Ionic relaxation
   EDIFFG = -.5E-01   stopping-criterion for IOM
   NSW    =    200    number of steps for IOM
   NBLOCK =      1;   KBLOCK =    200    inner block; outer block 
   IBRION =      3    ionic relax: 0-MD 1-quasi-New 2-CG
   NFREE  =      0    steps in history (QN), initial steepest desc. (CG)
   ISIF   =      0    stress and relaxation
   IWAVPR =     11    prediction:  0-non 1-charg 2-wave 3-comb
   ISYM   =      2    0-nonsym 1-usesym 2-fastsym
   LCORR  =      T    Harris-Foulkes like correction to forces

   POTIM  = 0.0000    time-step for ionic-motion
   TEIN   =    0.0    initial temperature
   TEBEG  =    0.0;   TEEND  =   0.0 temperature during run
   SMASS  =  -3.00    Nose mass-parameter (am)
   estimated Nose-frequenzy (Omega)   =  0.10E-29 period in steps =  0.00 mass=  -0.125E-25a.u.
   SCALEE = 1.0000    scale energy and forces
   NPACO  =    256;   APACO  = 16.0  distance and # of slots for P.C.
   PSTRESS=    0.0 pullay stress

  Mass of Ions in am
   POMASS =  12.01  1.00 16.00 28.09183.85
  Ionic Valenz
   ZVAL   =   4.00  1.00  6.00  4.00  6.00
  Atomic Wigner-Seitz radii
   RWIGS  =  -1.00 -1.00 -1.00 -1.00 -1.00
  virtual crystal weights 
   VCA    =   1.00  1.00  1.00  1.00  1.00
   NELECT =    1246.0000    total number of electrons
   NUPDOWN=      -1.0000    fix difference up-down

 DOS related values:
   EMIN   =  10.00;   EMAX   =-10.00  energy-range for DOS
   EFERMI =   0.00
   ISMEAR =     0;   SIGMA  =   0.20  broadening in eV -4-tet -1-fermi 0-gaus

 Electronic relaxation 2 (details)
   IALGO  =     68    algorithm
   LDIAG  =      T    sub-space diagonalisation (order eigenvalues)
   LSUBROT=      F    optimize rotation matrix (better conditioning)
   TURBO    =      0    0=normal 1=particle mesh
   IRESTART =      0    0=no restart 2=restart with 2 vectors
   NREBOOT  =      0    no. of reboots
   NMIN     =      0    reboot dimension
   EREF     =   0.00    reference energy to select bands
   IMIX   =      4    mixing-type and parameters
     AMIX     =   0.40;   BMIX     =  1.00
     AMIX_MAG =   1.60;   BMIX_MAG =  1.00
     AMIN     =   0.10
     WC   =   100.;   INIMIX=   1;  MIXPRE=   1;  MAXMIX= -45

 Intra band minimization:
   WEIMIN = 0.0010     energy-eigenvalue tresh-hold
   EBREAK =  0.33E-10  absolut break condition
   DEPER  =   0.30     relativ break condition  

   TIME   =   0.40     timestep for ELM

  volume/ion in A,a.u.               =      42.24       285.06
  Fermi-wavevector in a.u.,A,eV,Ry     =   0.782616  1.478929  8.333395  0.612487
  Thomas-Fermi vector in A             =   1.886376

 Write flags
   LWAVE        =      F    write WAVECAR
   LDOWNSAMPLE  =      F    k-point downsampling of WAVECAR
   LCHARG       =      F    write CHGCAR
   LVTOT        =      F    write LOCPOT, total local potential
   LVHAR        =      F    write LOCPOT, Hartree potential only
   LELF         =      F    write electronic localiz. function (ELF)
   LORBIT       =      0    0 simple, 1 ext, 2 COOP (PROOUT), +10 PAW based schemes


 Dipole corrections
   LMONO  =      F    monopole corrections only (constant potential shift)
   LDIPOL =      T    correct potential (dipole corrections)
   IDIPOL =      3    1-x, 2-y, 3-z, 4-all directions 
   EPSILON=  1.0000000 bulk dielectric constant

 Exchange correlation treatment:
   GGA     =    RP    GGA type
   LEXCH   =     9    internal setting for exchange type
   VOSKOWN=      0    Vosko Wilk Nusair interpolation
   LHFCALC =     F    Hartree Fock is set to
   LHFONE  =     F    Hartree Fock one center treatment
   AEXX    =    0.0000 exact exchange contribution

 Linear response parameters
   LEPSILON=     F    determine dielectric tensor
   LRPA    =     F    only Hartree local field effects (RPA)
   LNABLA  =     F    use nabla operator in PAW spheres
   LVEL    =     F    velocity operator in full k-point grid
   LINTERFAST=   F  fast interpolation
   KINTER  =     0    interpolate to denser k-point grid
   CSHIFT  =0.1000    complex shift for real part using Kramers Kronig
   OMEGAMAX=  -1.0    maximum frequency
   DEG_THRESHOLD= 0.2000000E-02 threshold for treating states as degnerate
   RTIME   =   -0.100 relaxation time in fs
  (WPLASMAI=    0.000 imaginary part of plasma frequency in eV, 0.658/RTIME)
   DFIELD  = 0.0000000 0.0000000 0.0000000 field for delta impulse in time

 Orbital magnetization related:
   ORBITALMAG=     F  switch on orbital magnetization
   LCHIMAG   =     F  perturbation theory with respect to B field
   DQ        =  0.001000  dq finite difference perturbation B field
   LLRAUG    =     F  two centre corrections for induced B field



--------------------------------------------------------------------------------------------------------


 quickmin algorithm: (dynamic with friction)
   using selective dynamics as specified on POSCAR
 charge density and potential will be updated during run
 non-spin polarized calculation
 RMM-DIIS sequential band-by-band and
  variant of blocked Davidson during initial phase
 perform sub-space diagonalisation
    before iterative eigenvector-optimisation
 modified Broyden-mixing scheme, WC =      100.0
 initial mixing is a Kerker type mixing with AMIX =  0.4000 and BMIX =      1.0000
 Hartree-type preconditioning will be used
 using additional bands          137
 real space projection scheme for non local part
 use partial core corrections
 calculate Harris-corrections to forces   (improved forces if not selfconsistent)
 use gradient corrections 
 use of overlap-Matrix (Vanderbilt PP)
 Gauss-broadening in eV      SIGMA  =   0.20


--------------------------------------------------------------------------------------------------------


  energy-cutoff  :      500.00
  volume of cell :    11405.04
      direct lattice vectors                 reciprocal lattice vectors
    23.411294595  0.000000000  0.000000000     0.042714426  0.000000000  0.000000000
     0.000000000 18.121236951  0.000000000     0.000000000  0.055183871  0.000000000
     0.000000000  0.000000000 26.883366507     0.000000000  0.000000000  0.037197722

  length of vectors
    23.411294595 18.121236951 26.883366507     0.042714426  0.055183871  0.037197722



 k-points in units of 2pi/SCALE and weight: KPOINTS created by Atomic Simulation Env
   0.00000000  0.00000000  0.00000000       0.111
   0.01423814  0.00000000  0.00000000       0.222
   0.00000000  0.01839462  0.00000000       0.222
   0.01423814  0.01839462  0.00000000       0.222
  -0.01423814  0.01839462  0.00000000       0.222

 k-points in reciprocal lattice and weights: KPOINTS created by Atomic Simulation Env
   0.00000000  0.00000000  0.00000000       0.111
   0.33333333  0.00000000  0.00000000       0.222
   0.00000000  0.33333333  0.00000000       0.222
   0.33333333  0.33333333  0.00000000       0.222
  -0.33333333  0.33333333  0.00000000       0.222

 position of ions in fractional coordinates (direct lattice) 
   0.55149001  0.53375113  0.78919568
   0.56663174  0.51569949  0.73959635
   0.76058294  0.10373835  0.65102927
   0.92642768  0.27866896  0.35633493
   0.79333970  0.20727890  0.37345652
   0.97453911  0.94360860  0.32530279
   0.62573266  0.96347285  0.37523120
   0.82053840  0.99500666  0.36899263
   0.74999307  0.14117876  0.45803819
   0.91544885  0.24946350  0.50908708
   0.58349286  0.30426355  0.30592717
   0.89144076  0.33464839  0.61599589
   0.58762532  0.35852629  0.61491276
   0.59341049  0.87088885  0.57799700
   0.03376588  0.33772548  0.65218276
   0.93527051  0.41951423  0.45410146
   0.74613838  0.53031199  0.42248819
   0.79812322  0.38239175  0.63492623
   0.59110202  0.56868283  0.37803474
   0.71843379  0.64593279  0.38346059
   0.84115291  0.54242660  0.41959617
   0.00476455  0.60379815  0.35777830
   0.82835870  0.71235667  0.46794226
   0.87611443  0.59869776  0.72179210
   0.51999031  0.98556476  0.42170307
   0.22309457  0.98015484  0.39320502
   0.21637369  0.23785146  0.31923033
   0.15750105  0.32980623  0.27898292
   0.34154688  0.15558571  0.33077276
   0.22271586  0.04575893  0.32273843
   0.51110724  0.82593903  0.54671598
   0.37264067  0.23646756  0.64756188
   0.24356794  0.09311980  0.59850332
   0.31538097  0.48713646  0.44243467
   0.40895618  0.43873486  0.40569060
   0.39849950  0.79311361  0.38878680
   0.24420236  0.65543008  0.29432688
   0.31174138  0.41847571  0.36925764
   0.40547429  0.58427965  0.33881989
   0.13935762  0.48797365  0.35192946
   0.59326935  0.69798713  0.35239799
   0.46900683  0.86142747  0.44382838
   0.12163593  0.32303324  0.61169877
   0.07199408  0.66557238  0.64554051
   0.23973708  0.38736202  0.68289838
   0.24671271  0.81593529  0.66928280
   0.52560915  0.49687962  0.81185736
   0.57031293  0.58233069  0.80656741
   0.57323325  0.45370738  0.72593091
   0.59851009  0.55071330  0.72073809
   0.36894173  0.64835510  0.43900002
   0.34681565  0.50403387  0.42038813
   0.86070158  0.56591564  0.69666833
   0.34896322  0.95905442  0.53002313
   0.03339853  0.93223339  0.52863566
   0.63635548  0.07886855  0.48937667
   0.06864615  0.05226542  0.39511073
   0.45189954  0.12956232  0.42059728
   0.80588415  0.21365018  0.48316661
   0.97326225  0.18153542  0.59883631
   0.27476529  0.29917287  0.44851223
   0.55635417  0.77509129  0.44175101
   0.39188671  0.97347501  0.61918807
   0.17751724  0.34996845  0.40527312
   0.86647956  0.68405349  0.63729508
   0.86569601  0.96717693  0.46703846
   0.30104714  0.76093683  0.45792526
   0.42161095  0.26125222  0.37959630
   0.81105801  0.46543147  0.52011691
   0.98365100  0.07268482  0.52122820
   0.51357971  0.46505719  0.62728120
   0.03453641  0.91994776  0.42940526
   0.96303654  0.30319531  0.35125762
   0.06962669  0.33610577  0.37637178
   0.20829566  0.72864429  0.39536010
   0.03890126  0.41910192  0.49910875
   0.23964646  0.28587308  0.58783233
   0.39852390  0.19486935  0.64493206
   0.45314986  0.56397542  0.57940203
   0.90973516  0.74922945  0.55749010
   0.86912727  0.10804334  0.44227833
   0.57257679  0.66733185  0.37613173
   0.14242656  0.15912550  0.37597224
   0.35054167  0.76534103  0.60667751
   0.91099605  0.84504757  0.48317962
   0.06133801  0.53687171  0.44225348
   0.70833903  0.55516655  0.41995768
   0.07548726  0.81680680  0.48299416
   0.70046477  0.82755571  0.43263529
   0.73007113  0.04881971  0.54307294
   0.91891370  0.30197376  0.63208343
   0.73501763  0.85310000  0.61294735
   0.62512195  0.52739400  0.48637871
   0.55657330  0.62970304  0.46724942
   0.42512785  0.24744265  0.55530580
   0.97829009  0.72824363  0.47679564
   0.65399344  0.59413539  0.63347363
   0.39697928  0.74655011  0.51521833
   0.60269007  0.51766545  0.38567099
   0.71981424  0.63126106  0.55718756
   0.14671881  0.36400302  0.61998597
   0.06625171  0.54853636  0.54193613
   0.81888113  0.88464814  0.53670953
   0.82821553  0.35538514  0.45190334
   0.52731633  0.29868927  0.53265897
   0.73679031  0.49916389  0.59551685
   0.55743394  0.17243111  0.39490854
   0.80596408  0.25641257  0.38329286
   0.23744622  0.95325075  0.50791956
   0.69291041  0.77646034  0.54138368
   0.92385939  0.94973076  0.55294953
   0.52573722  0.31778112  0.39855594
   0.46872466  0.99060832  0.54594703
   0.83761419  0.09485111  0.53976458
   0.53790325  0.11641749  0.48623709
   0.35019344  0.18660873  0.43963639
   0.01176032  0.96241390  0.33524376
   0.45741396  0.59002662  0.67433031
   0.65496522  0.92539750  0.37922825
   0.07629334  0.68602626  0.43588102
   0.45244821  0.40490061  0.55286827
   0.71921944  0.70042085  0.37958300
   0.45120559  0.70559433  0.60011989
   0.75255106  0.70932458  0.47629548
   0.77861999  0.12104981  0.62074259
   0.99327462  0.30801347  0.44840298
   0.53298823  0.50838805  0.53027453
   0.81677759  0.49906173  0.42344221
   0.23588975  0.14514278  0.60536600
   0.20353331  0.83070132  0.47053363
   0.23989058  0.55871451  0.52302863
   0.06109162  0.62538427  0.62374112
   0.04607407  0.60234669  0.35417863
   0.80082789  0.97878582  0.60589975
   0.53799091  0.02769749  0.40450275
   0.60633157  0.31293154  0.60506795
   0.86154611  0.00408085  0.36920633
   0.09491131  0.14902284  0.46708233
   0.17142699  0.20397342  0.53091617
   0.64098865  0.70443872  0.45481558
   0.43678778  0.40976848  0.38641325
   0.57440025  0.05889143  0.57119219
   0.15143775  0.59340802  0.38895836
   0.26773979  0.60233753  0.39230630
   0.44025846  0.32219818  0.47032443
   0.23800967  0.15851113  0.42990119
   0.07273869  0.15028088  0.56256983
   0.84496773  0.54402074  0.59986857
   0.62117943  0.27993988  0.41090545
   0.60266699  0.89152667  0.46722346
   0.03138539  0.19528983  0.38899188
   0.60778171  0.19571735  0.54715329
   0.13279973  0.93835464  0.47948708
   0.08027255  0.28040596  0.51158576
   0.37253004  0.10523270  0.56815509
   0.06643635  0.69700760  0.53576104
   0.66648838  0.41538488  0.43001156
   0.79938783  0.72966366  0.56413954
   0.70383856  0.95720843  0.47018456
   0.59871942  0.63364060  0.55263578
   0.72284030  0.29368465  0.45166811
   0.97761526  0.31410668  0.54727743
   0.15822217  0.63000686  0.57056394
   0.63333384  0.32678308  0.50780070
   0.81959232  0.39620019  0.60547992
   0.95857820  0.02724304  0.41695300
   0.28209099  0.19499869  0.51866148
   0.24925755  0.44303289  0.46105570
   0.27333390  0.84964712  0.56783307
   0.20366815  0.68557317  0.48688872
   0.14712345  0.47606988  0.49254493
   0.22452124  0.42258842  0.55683266
   0.91141698  0.45274460  0.47371881
   0.86978818  0.70456011  0.46415352
   0.73812021  0.09283462  0.44522965
   0.22218344  0.92978119  0.40794682
   0.25168206  0.40153529  0.64974616
   0.63044156  0.88331776  0.59341952
   0.41022327  0.78906239  0.42343739
   0.91777135  0.19603829  0.50824515
   0.13254706  0.44353611  0.33227266
   0.15514768  0.30352326  0.31056042
   0.37300515  0.13090704  0.34795342
   0.03457136  0.29188140  0.63351805
   0.57268926  0.25686819  0.32009968
   0.24528793  0.77112400  0.64961267
   0.20737430  0.64840505  0.31036906
   0.27537441  0.39219130  0.36737583
   0.36535081  0.59758663  0.34222079
   0.22638085  0.05618082  0.35811888
   0.24120333  0.19607823  0.32934297
   0.50127293  0.89230162  0.45484168
   0.55009134  0.82784839  0.53438215
   0.54490770  0.64589331  0.63325176
   0.47856927  0.12260771  0.59590694
   0.26240649  0.69438839  0.56857877
   0.44248734  0.84768868  0.58145282
   0.76548966  0.61679253  0.64958220
   0.84475269  0.83168687  0.62309924
   0.64000104  0.73948120  0.62074588
   0.00814193  0.03337742  0.60300911
   0.28461443  0.00200281  0.59337691
   0.50318579  0.97241614  0.62863293
   0.45587846  0.43913394  0.72919208
   0.08322528  0.60642030  0.40641308
   0.40909333  0.76602648  0.57447436
   0.84176382  0.44145312  0.46783897
   0.01708949  0.99048204  0.39361135
   0.01470021  0.28419027  0.39108141
   0.00929140  0.11497091  0.57253252
   0.60954497  0.65763749  0.61026940
   0.21398571  0.47587730  0.50975913
   0.91506213  0.75556094  0.49625454
   0.52057854  0.11045563  0.42598659
   0.41863771  0.16977624  0.58902010
   0.08345253  0.13917208  0.40698087
   0.70189793  0.04484625  0.48732303
   0.66505935  0.89803746  0.43747644
   0.65009874  0.50402706  0.43015089
   0.19846065  0.91248223  0.46399069
   0.21425216  0.36647591  0.60362203
   0.67364743  0.81373337  0.59453618
   0.21663529  0.64164597  0.53854898
   0.36878912  0.73512773  0.45920930
   0.79747917  0.88857487  0.59573185
   0.87978712  0.91226229  0.51198641
   0.57624257  0.57442080  0.51166345
   0.58991077  0.11562147  0.52514895
   0.85812234  0.15211323  0.49517595
   0.83547390  0.60358897  0.64589087
   0.13373852  0.36031890  0.35687228
   0.79065529  0.27993925  0.44187265
   0.39917610  0.17749484  0.39600320
   0.85599597  0.75014561  0.59656692
   0.28333474  0.93474376  0.54926280
   0.02307473  0.33044751  0.50224551
   0.57455938  0.69549008  0.43556436
   0.23024095  0.75260050  0.45196954
   0.59369014  0.28412129  0.54824243
   0.97520125  0.27227226  0.60267723
   0.88890636  0.02540900  0.42420019
   0.10465783  0.19546785  0.51773811
   0.04814566  0.73303709  0.48263019
   0.23193044  0.20577928  0.56098517
   0.56140781  0.25778527  0.38122611
   0.47612153  0.62700216  0.62045038
   0.28146517  0.77058937  0.59747230
   0.20850083  0.64339984  0.37179454
   0.74045487  0.71088244  0.53583400
   0.98659408  0.99053615  0.55036983
   0.70310456  0.73681815  0.43426040
   0.78785419  0.05939803  0.57678269
   0.45631390  0.32845159  0.40928789
   0.44961226  0.93653524  0.59424621
   0.50868462  0.04138885  0.58598309
   0.24424715  0.37040632  0.42094710
   0.65852534  0.33000211  0.45034791
   0.46007038  0.31840423  0.52896862
   0.33729937  0.58994254  0.39908301
   0.80320771  0.47636647  0.57976099
   0.06920979  0.89885916  0.48050551
   0.21190758  0.14445432  0.37359659
   0.07823286  0.49398499  0.49468762
   0.55757019  0.85234010  0.47473025
   0.71839144  0.58468985  0.60960768
   0.28664212  0.21010174  0.45911077
   0.08805807  0.62552816  0.56764079
   0.35341134  0.01969595  0.57787158
   0.48553294  0.48211596  0.57150901
   0.49689564  0.49971605  0.69569956

 position of ions in cartesian coordinates  (Angst):
  12.91109508  9.67223062 21.21623666
  13.26558264  9.34511257 19.88283972
  17.80623127  1.87986723 17.50185845
  21.68887124  5.04982630  9.57948250
  18.57310935  3.75615001 10.03976840
  22.81522226 17.09935504  8.74523415
  14.64921175 17.45931981 10.08747787
  19.20986618 18.03075152  9.91976410
  17.55830880  2.55833368 12.31360861
  21.43184281  4.52058721 13.68597468
  13.66032332  5.51363181  8.22435231
  20.86978234  6.06424274 16.56004334
  13.75706943  6.49693994 16.53092500
  13.89250776 15.78158312 15.53850517
   0.79050294  6.12000340 17.53286822
  21.89589338  7.60211669 12.20777585
  17.46806539  9.60990927 11.35790489
  18.68509772  6.92941151 17.06895464
  13.83846346 10.30523625 10.16284657
  16.81946503 11.70510106 10.30871170
  19.69247867  9.82944087 11.28015755
   0.11154425 10.94156933  9.61828518
  19.39294954 12.90878407 12.57986315
  20.51097297 10.84914402 19.40420165
  12.17364643 17.85965257 11.33679820
   5.22293275 17.76161801 10.57067472
   5.06558822  4.31016263  8.58198589
   3.68730349  5.97649684  7.50000000
   7.99605454  2.81940543  8.89228530
   5.21406665  0.82920834  8.67629559
  11.96568222 14.96703691 14.69756598
   8.72400054  4.28508461 17.40864323
   5.70224074  1.68744604 16.08978411
   7.38347683  8.82751530 11.89413327
   9.57419369  7.95041833 10.90632902
   9.32938926 14.37219961 10.45189795
   5.71709332 11.87720376  7.91249741
   7.29826932  7.58329756  9.92688859
   9.49267817 10.58787004  9.10861924
   3.26254231  8.84268607  9.46104865
  13.88920341 12.64839014  9.47364424
  10.98005707 15.61013128 11.93160111
   2.84765454  5.85376195 16.44452223
   1.68547458 12.06099472 17.35430211
   5.61255540  7.01947886 18.35860741
   5.77586393 14.78575681 17.99257470
  12.30519068  9.00407327 21.82545905
  13.35176399 10.55255245 21.68324725
  13.42013257  8.22173902 19.51546673
  14.01189604  9.97960624 19.37586625
   8.63740362 11.74899635 11.80179838
   8.11940335  9.13371715 11.30144811
  20.15013824 10.25509139 18.72879002
   8.16968086 17.37925243 14.24880617
   0.78190294 16.89322224 14.21150620
  14.89790566  1.42919560 13.15609244
   1.60709516  0.94711408 10.62190669
  10.57955331  2.34782959 11.30707087
  18.86679123  3.87160553 12.98914499
  22.78532916  3.28964644 16.09873609
   6.43261122  5.42138248 12.05751853
  13.02497128 14.04561294 11.87575437
   9.17457513 17.64057137 16.64585974
   4.15590840  6.34186119 10.89510594
  20.28540815 12.39589546 17.13263709
  20.26706432 17.52644236 12.55556607
   7.04790320 13.78911669 12.31057251
   9.87045805  4.73421333 10.20482654
  18.98791808  8.43419402 13.98249359
  23.02854345  1.31713881 14.01236878
  12.02356589  8.42741159 16.86343031
   0.80854198 16.67059137 11.54385891
  22.54593219  5.49427402  9.44298747
   1.63005096  6.09065222 10.11814055
   4.87647100 13.20393591 10.62861051
   0.91072893  7.59464512 13.41772355
   5.61043391  5.18037384 15.80291207
   9.32996043  3.53127375 17.33794495
  10.60882475 10.21993217 15.57627718
  21.29807772 13.57696448 14.98721064
  20.34739459  1.95787901 11.88993046
  13.40476402 12.09287863 10.11168720
   3.33439013  2.88355087 10.10739962
   8.20663423 13.86892619 16.30953377
  21.32759690 15.31330727 12.98949491
   1.43600223  9.72877939 11.88926245
  16.58313365 10.06030463 11.28987623
   1.76725442 14.80154965 12.98450890
  16.39878711 14.99633320 11.63069310
  17.09191040  0.88467351 14.59962892
  21.51295928  5.47213802 16.99253042
  17.20771437 15.45922722 16.47808825
  14.63491423  9.55703168 13.07549710
  13.03010146 11.41099800 12.56123752
   9.95279335  4.48396698 14.92848943
  22.90303759 13.19667544 12.81787194
  15.31083308 10.76646814 17.02990368
   9.29379882 13.52841138 13.85080324
  14.10975474  9.38073831 10.36813464
  16.85178312 11.43923128 14.97907736
   3.43487730  6.59618492 16.66731011
   1.55103834  9.94015733 14.56906754
  19.17106733 16.03091851 14.42855912
  19.38959778  6.44001838 12.14868300
  12.34515806  5.41261898 14.31966640
  17.24921496  9.04546707 16.00949786
  13.05025009  3.12466491 10.61647095
  18.86866258  4.64651294 10.30420244
   5.55892333 17.27408272 13.65458756
  16.22192973 14.07042180 14.55421591
  21.62874433 17.21029611 14.86514483
  12.30818899  5.75858696 10.71452528
  10.97345104 17.95104802 14.67689407
  19.60963267  1.71881936 14.51068916
  12.59301152  2.10962891 13.07168996
   8.19848185  3.38158105 11.81890631
   0.27532438 17.44013032  9.01248080
  10.70865298 10.69201225 18.12826883
  15.33358375 16.76934745 10.19493214
   1.78612593 12.43164436 11.71794928
  10.59239822  7.33729991 14.86296026
  16.83785811 12.69249221 10.20446890
  10.56330698 12.78624205 16.13324284
  17.61819454 12.85383870 12.80442605
  18.22850187  2.19357225 16.68765058
  23.25384464  5.58158513 12.05458163
  12.47794449  9.21262023 14.25556456
  19.12182067  9.04361594 11.38355200
   5.52248453  2.63016678 16.27427607
   4.76497818 15.05333538 12.64952801
   5.61614899 10.12459795 14.06077033
   1.43023396 11.33273660 16.76826109
   1.07865368 10.91526713  9.52151395
  18.74841770 17.73680974 16.28862492
  12.59506368  0.50191281 10.87439573
  14.19500704  5.67070662 16.26626347
  20.16990973  0.07395004  9.92550906
   2.22199659  2.70047811 12.55674536
   4.01332776  3.69625062 14.27281392
  15.00637423 12.76530096 12.22697399
  10.22576747  7.42551173 10.38808912
  13.44745343  1.06718557 15.35556897
   3.54535369 10.75328740 10.45651017
   6.26813510 10.91510113 10.54651395
  10.30702050  5.83862960 12.64390410
   5.57211440  2.87241773 11.55719116
   1.70290694  2.72327546 15.12377089
  19.78178839  9.85832874 16.12648650
  14.54261459  5.07285683 11.04652184
  14.10921452 16.15556596 12.56053950
   0.73477264  3.53889327 10.45741115
  14.22895667  3.54664053 14.70932241
   3.10901351 17.00414686 12.89022683
   1.87928430  5.08130292 13.75314737
   8.72141051  1.90694666 15.27392165
   1.55536100 12.63063988 14.40306043
  15.60335581  7.52728779 11.56015827
  18.71470399 13.22240810 15.16597013
  16.47777184 17.34580083 12.64014391
  14.01679669 11.48235147 14.85671028
  16.92262720  5.32192920 12.14235921
  22.88723885  5.69200156 14.71265972
   3.70418586 11.41650361 15.33867958
  14.82716522  5.92171361 13.65139239
  19.18771716  7.17963750 16.27733866
  22.44155659  0.49367766 11.20910044
   6.60411536  3.53361745 13.94336675
   5.83544193  8.02830396 12.39472924
   6.39910041 15.39665685 15.26526446
   4.76813504 12.42343385 13.08920785
   3.44435051  8.62697504 13.24126574
   5.25633279  7.65782496 14.96953645
  21.33745138  8.20429214 12.73515651
  20.36286723 12.76750071 12.47800922
  17.28034963  1.68227812 11.96927179
   5.20160188 16.84878525 10.96698378
   5.89220274  7.27631619 17.46736405
  14.75945306 16.00681039 15.95311434
   9.60385771 14.29878657 11.38342242
  21.48621551  3.55245637 13.66334053
   3.10309823  8.03742301  8.93260776
   3.63220806  5.50021683  8.34890949
   8.73253334  2.37219755  9.35415932
   0.80936039  5.28925192 17.03109798
  13.40739699  4.65476936  8.60535697
   5.74250804 13.97372066 17.46377555
   4.85490080 11.74990154  8.34376522
   6.44687148  7.10699146  9.87629901
   8.55333550 10.82900896  9.20004704
   5.29986877  1.01806602  9.62744117
   5.64688233  3.55318002  8.85384768
  11.73544815 16.16960912 12.22767567
  12.87835051 15.00163684 14.36599124
  12.75699466 11.70438574 17.02393925
  11.20392605  2.22180343 16.01998456
   6.14327571 12.58317659 15.28531147
  10.35920150 15.36116735 15.63140925
  17.92110385 11.17704359 17.46295631
  19.77675400 15.07119478 16.75100514
  14.98325280 13.40031398 16.68773912
   0.19061316  0.60484011 16.21091479
   6.66319221  0.03629334 15.95196903
  11.78023085 17.62138336 16.89976934
  10.67270482  7.95765021 19.60313804
   1.94841153 10.98908596 10.92575188
   9.57740444 13.88134735 15.44380468
  19.70678074  7.99967650 12.57708649
   0.40008717 17.94875972 10.58159830
   0.34415087  5.14987929 10.51358498
   0.21752360  2.08341508 15.39160156
  14.27023679 11.91720471 16.40609598
   5.00968242  8.62348532 13.70404142
  21.42278905 13.69169878 13.34099278
  12.18741762  2.00159257 11.45195358
   9.80085084  3.07655547 15.83484322
   1.95373172  2.52197018 10.94101594
  16.43233932  0.81266960 13.10088356
  15.56990047 16.27354966 11.76083937
  15.21965321  9.13359373 11.56390395
   4.64622068 16.53530673 12.47363180
   5.01592042  6.64099678 16.22739236
  15.77095840 14.74585519 15.98313415
   5.07171264 11.62741860 14.47800974
   8.63383069 13.32142384 12.34509184
  18.67001981 16.10207573 16.01527762
  20.59695541 16.53132106 13.76391823
  13.49058466 10.40921551 13.75523597
  13.81057484  2.09520412 14.11777157
  20.08975493  2.75647992 13.31199648
  19.55952566 10.93777877 17.36372088
   3.13099191  6.52942423  9.59392828
  18.51026388  5.07284540 11.87902451
   9.34522920  3.21642612 10.64589911
  20.03997388 13.59356633 16.03772727
   6.63323305 16.93871315 14.76603304
   0.54020935  5.98811771 13.50205012
  13.45117902 12.60314055 11.70943634
   5.39023881 13.63805192 12.15046292
  13.89905479  5.14862923 14.73860214
  22.83072375  4.93391010 16.20199284
  20.81044864  0.46044249 11.40392910
   2.45017531  3.54211923 13.91854329
   1.12715225 13.28353886 12.97472440
   5.42979184  3.72897515 15.08116989
  13.14328356  4.67138795 10.24864117
  11.14662134 11.36205475 16.67979494
   6.58946392 13.96403253 16.06206669
   4.88127424 11.65920103  9.99508876
  17.33500717 12.88206918 14.40502188
  23.09744476 17.94974030 14.79579381
  16.46058793 13.35205634 11.67438144
  18.44468652  1.07636573 15.50586039
  10.68289909  5.95194918 11.00303640
  10.52600503 16.97117705 15.97533878
  11.90896549  0.75001716 15.75319812
   5.71814202  6.71222076 11.31647527
  15.41693082  5.98004644 12.10686792
  10.77084329  5.76987854 14.22045733
   7.89661487 10.69048858 10.72869482
  18.80413232  8.63234959 15.58592717
   1.62029077 16.28843974 12.91760565
   4.96103075  2.61769098 10.04353415
   1.83153245  8.95161914 13.29886860
  13.05343995 15.44545689 12.76234739
  16.81847353 10.59530327 16.38830670
   6.71066321  3.80730338 12.34244318
   2.06155338 11.33534401 15.26009539
   8.27381704  0.35691496 15.53513338
  11.36695470  8.73653763 15.36408615
  11.63297014  9.05547302 18.70274621



--------------------------------------------------------------------------------------------------------


 k-point  1 :   0.0000 0.0000 0.0000  plane waves:  289505
 k-point  2 :   0.3333 0.0000 0.0000  plane waves:  289422
 k-point  3 :   0.0000 0.3333 0.0000  plane waves:  289550
 k-point  4 :   0.3333 0.3333 0.0000  plane waves:  289551
 k-point  5 :  -0.3333 0.3333 0.0000  plane waves:  289551

 maximum and minimum number of plane-waves per node :     72451    72309

 maximum number of plane-waves:    289551
 maximum index in each direction: 
   IXMAX=   43   IYMAX=   33   IZMAX=   49
   IXMIN=  -43   IYMIN=  -33   IZMIN=  -49


 real space projection operators:
  total allocation   :      13526.07 KBytes
  max/ min on nodes  :       3386.34       3376.55


 parallel 3D FFT for wavefunctions:
    minimum data exchange during FFTs selected (reduces bandwidth)
 parallel 3D FFT for charge:
    minimum data exchange during FFTs selected (reduces bandwidth)


 total amount of memory used by VASP MPI-rank0   691102. kBytes
=======================================================================

   base      :      30000. kBytes
   nonlr-proj:      16582. kBytes
   fftplans  :      30982. kBytes
   grid      :      57864. kBytes
   one-center:       1057. kBytes
   wavefun   :     554617. kBytes

     INWAV:  cpu time    0.0001: real time    0.0001
 Broyden mixing: mesh for mixing (old mesh)
   NGX = 85   NGY = 67   NGZ = 99
  (NGX  =256   NGY  =200   NGZ  =300)
  gives a total of 563805 points

 initial charge density was supplied:
 charge density of overlapping atoms calculated
 number of electron    1246.0000000 magnetization 
 keeping initial charge density in first step


--------------------------------------------------------------------------------------------------------


 Maximum index for non-local projection operator          638
 Maximum index for augmentation-charges          536 (set IRDMAX)


--------------------------------------------------------------------------------------------------------


 First call to EWALD:  gamma=   0.079
 Maximum number of real-space cells 3x 3x 2
 Maximum number of reciprocal cells 3x 2x 3

    FEWALD:  cpu time    0.0284: real time    0.0285


--------------------------------------- Iteration      1(   1)  ---------------------------------------


    POTLOK:  cpu time    0.2761: real time    0.2983
    SETDIJ:  cpu time    0.5730: real time    0.5748
     EDDAV:  cpu time   78.6174: real time   78.9061
       DOS:  cpu time    0.0022: real time    0.0022
    --------------------------------------------
      LOOP:  cpu time   79.4688: real time   79.7813

 eigenvalue-minimisations  :  8480
 total energy-change (2. order) : 0.1280431E+05  (-0.4873516E+05)
 number of electron    1246.0000000 magnetization 
 augmentation part     1246.0000000 magnetization 

 DIPCOR: dipole corrections for dipol
 direction  3 min pos    57,
 dipolmoment           0.000000      0.000000      0.055343 electrons x Angstroem
 Tr[quadrupol]    -93552.307971

 energy correction for charged system         0.000000 eV
 dipol+quadrupol energy correction           -0.000025 eV
 added-field ion interaction          5.577887 eV  (added to PSCEN)


 Free energy of the ion-electron system (eV)
  ---------------------------------------------------
  alpha Z        PSCENC =       485.51330944
  Ewald energy   TEWEN  =    309006.25886400
  -Hartree energ DENC   =   -370944.99751678
  -exchange      EXHF   =         0.00000000
  -V(xc)+E(xc)   XCENC  =      3742.66112786
  PAW double counting   =     59729.87451082   -58746.54997561
  entropy T*S    EENTRO =        -1.59319441
  eigenvalues    EBANDS =     -4829.43230296
  atomic energy  EATOM  =     74362.57199611
  Solvation  Ediel_sol  =         0.00000000
  ---------------------------------------------------
  free energy    TOTEN  =     12804.30681847 eV

  energy without entropy =    12805.90001288  energy(sigma->0) =    12805.10341567


--------------------------------------------------------------------------------------------------------




--------------------------------------- Iteration      1(   2)  ---------------------------------------


     EDDAV:  cpu time   94.7250: real time   95.0667
       DOS:  cpu time    0.0012: real time    0.0012
    --------------------------------------------
      LOOP:  cpu time   94.7263: real time   95.0680

 eigenvalue-minimisations  : 10672
 total energy-change (2. order) :-0.1212793E+05  (-0.1173362E+05)
 number of electron    1246.0000000 magnetization 
 augmentation part     1246.0000000 magnetization 

 DIPCOR: dipole corrections for dipol
 direction  3 min pos    57,
 dipolmoment           0.000000      0.000000      0.055343 electrons x Angstroem
 Tr[quadrupol]    -93552.307971

 energy correction for charged system         0.000000 eV
 dipol+quadrupol energy correction           -0.000025 eV
 added-field ion interaction          5.577887 eV  (added to PSCEN)


 Free energy of the ion-electron system (eV)
  ---------------------------------------------------
  alpha Z        PSCENC =       485.51330944
  Ewald energy   TEWEN  =    309006.25886400
  -Hartree energ DENC   =   -370944.99751678
  -exchange      EXHF   =         0.00000000
  -V(xc)+E(xc)   XCENC  =      3742.66112786
  PAW double counting   =     59729.87451082   -58746.54997561
  entropy T*S    EENTRO =        -0.00000000
  eigenvalues    EBANDS =    -16958.95212640
  atomic energy  EATOM  =     74362.57199611
  Solvation  Ediel_sol  =         0.00000000
  ---------------------------------------------------
  free energy    TOTEN  =       676.38018943 eV

  energy without entropy =      676.38018943  energy(sigma->0) =      676.38018943


--------------------------------------------------------------------------------------------------------




--------------------------------------- Iteration      1(   3)  ---------------------------------------


     EDDAV:  cpu time   81.4513: real time   81.7419
       DOS:  cpu time    0.0012: real time    0.0012
    --------------------------------------------
      LOOP:  cpu time   81.4525: real time   81.7431

 eigenvalue-minimisations  :  8840
 total energy-change (2. order) :-0.2656594E+04  (-0.2647379E+04)
 number of electron    1246.0000000 magnetization 
 augmentation part     1246.0000000 magnetization 

 DIPCOR: dipole corrections for dipol
 direction  3 min pos    57,
 dipolmoment           0.000000      0.000000      0.055343 electrons x Angstroem
 Tr[quadrupol]    -93552.307971

 energy correction for charged system         0.000000 eV
 dipol+quadrupol energy correction           -0.000025 eV
 added-field ion interaction          5.577887 eV  (added to PSCEN)


 Free energy of the ion-electron system (eV)
  ---------------------------------------------------
  alpha Z        PSCENC =       485.51330944
  Ewald energy   TEWEN  =    309006.25886400
  -Hartree energ DENC   =   -370944.99751678
  -exchange      EXHF   =         0.00000000
  -V(xc)+E(xc)   XCENC  =      3742.66112786
  PAW double counting   =     59729.87451082   -58746.54997561
  entropy T*S    EENTRO =        -0.00000000
  eigenvalues    EBANDS =    -19615.54597494
  atomic energy  EATOM  =     74362.57199611
  Solvation  Ediel_sol  =         0.00000000
  ---------------------------------------------------
  free energy    TOTEN  =     -1980.21365910 eV

  energy without entropy =    -1980.21365910  energy(sigma->0) =    -1980.21365910


--------------------------------------------------------------------------------------------------------




--------------------------------------- Iteration      1(   4)  ---------------------------------------


[...]
    0.0000000000E+00    0.0000000000E+00    0.0000000000E+00
    3.6947523151E-02    1.3635816614E-03    1.5626705093E-02
    1.7489316540E-02   -3.4445271607E-03    6.5817875515E-03
    0.0000000000E+00    0.0000000000E+00    0.0000000000E+00
   -7.1600565950E-04   -7.9770761957E-04   -7.2186856496E-06
    5.4049229359E-03    4.1137298771E-03    3.4732738306E-03
    0.0000000000E+00    0.0000000000E+00    0.0000000000E+00
   -4.6764073475E-03    1.8152402996E-02   -1.6763124524E-02
    0.0000000000E+00    0.0000000000E+00    0.0000000000E+00
   -4.3236930675E-03   -1.0623192445E-02   -1.3546042336E-02
   -1.0967913956E-02   -8.7808100945E-03   -2.1280527183E-02
    0.0000000000E+00    0.0000000000E+00    0.0000000000E+00
    0.0000000000E+00    0.0000000000E+00    0.0000000000E+00
    8.0821038278E-03    1.5920005403E-02    1.2589327311E-02
    0.0000000000E+00    0.0000000000E+00    0.0000000000E+00
   -4.3630238058E-03   -2.0690317515E-03   -4.2722745597E-03
    0.0000000000E+00    0.0000000000E+00    0.0000000000E+00
    0.0000000000E+00    0.0000000000E+00    0.0000000000E+00
    0.0000000000E+00    0.0000000000E+00    0.0000000000E+00
    0.0000000000E+00    0.0000000000E+00    0.0000000000E+00
    1.5018971786E-03   -1.7544164338E-03    2.8318795021E-04
    0.0000000000E+00    0.0000000000E+00    0.0000000000E+00
   -1.4518224617E-03   -1.4155674113E-03    1.9836534335E-03
    3.4659706417E-02    2.3702370720E-04   -1.5294509386E-02
   -1.5238375186E-02    5.4062821828E-02    3.5987474192E-03
   -2.7843915251E-02    1.6107962696E-01    1.1023030922E-01
 Dimer: -----------------
 Dimer: Itr    1 Rot    0

 Dimer: Central Point
 Dimer: F0      0.190115

 Dimer: Projection
 Dimer: N*F0   6.6644150714098682E-002
 Dimer: F0sq   3.6143730343716082E-002
 Dimer: Feffsq    4.4414428244035015E-003
 Dimer: Feff
    1.8250162741E-02   -5.5467381194E-03    1.6946027278E-02
   -1.3198876166E-02    2.3298993502E-02    1.4063058579E-02
    5.8016459368E-05    2.2279694186E-04   -8.6788049149E-05
   -0.0000000000E+00   -0.0000000000E+00   -0.0000000000E+00
   -0.0000000000E+00   -0.0000000000E+00   -0.0000000000E+00
   -0.0000000000E+00   -0.0000000000E+00   -0.0000000000E+00
   -0.0000000000E+00   -0.0000000000E+00   -0.0000000000E+00
   -0.0000000000E+00   -0.0000000000E+00   -0.0000000000E+00
   -0.0000000000E+00   -0.0000000000E+00   -0.0000000000E+00
    4.8571019643E-05    2.4163828952E-06   -1.1380239416E-04
   -0.0000000000E+00   -0.0000000000E+00   -0.0000000000E+00
    5.8719297884E-05   -6.4944444927E-06   -8.7552855031E-05
   -7.1076554298E-04    3.9694077618E-04    5.0632747987E-04
    9.3001281115E-05    2.2643614952E-04   -8.0031353455E-05
   -3.9081172409E-04    2.6311340544E-04   -1.9878876405E-04
   -0.0000000000E+00   -0.0000000000E+00   -0.0000000000E+00
   -0.0000000000E+00   -0.0000000000E+00   -0.0000000000E+00
    7.8469420446E-05    1.2928636090E-04   -2.1668566114E-04
   -0.0000000000E+00   -0.0000000000E+00   -0.0000000000E+00
   -0.0000000000E+00   -0.0000000000E+00   -0.0000000000E+00
   -0.0000000000E+00   -0.0000000000E+00   -0.0000000000E+00
   -0.0000000000E+00   -0.0000000000E+00   -0.0000000000E+00
   -0.0000000000E+00   -0.0000000000E+00   -0.0000000000E+00
   -5.9553920142E-04   -9.6292152716E-04   -1.3962308619E-03
   -0.0000000000E+00   -0.0000000000E+00   -0.0000000000E+00
   -0.0000000000E+00   -0.0000000000E+00   -0.0000000000E+00
   -0.0000000000E+00   -0.0000000000E+00   -0.0000000000E+00
   -0.0000000000E+00   -0.0000000000E+00   -0.0000000000E+00
   -0.0000000000E+00   -0.0000000000E+00   -0.0000000000E+00
   -0.0000000000E+00   -0.0000000000E+00   -0.0000000000E+00
   -2.3212145530E-04   -8.8214319579E-05    1.4922733700E-04
    2.5983267737E-04    9.1325398457E-05   -1.4690201450E-04
   -3.6507347077E-05    1.4986925836E-04   -9.6616805364E-05
   -0.0000000000E+00   -0.0000000000E+00   -0.0000000000E+00
   -0.0000000000E+00   -0.0000000000E+00   -0.0000000000E+00
   -0.0000000000E+00   -0.0000000000E+00   -0.0000000000E+00
   -0.0000000000E+00   -0.0000000000E+00   -0.0000000000E+00
   -0.0000000000E+00   -0.0000000000E+00   -0.0000000000E+00
   -0.0000000000E+00   -0.0000000000E+00   -0.0000000000E+00
   -0.0000000000E+00   -0.0000000000E+00   -0.0000000000E+00
   -0.0000000000E+00   -0.0000000000E+00   -0.0000000000E+00
   -0.0000000000E+00   -0.0000000000E+00   -0.0000000000E+00
    1.5313801145E-04    1.6105292630E-04   -1.0915024903E-04
    1.0559379914E-04    2.3778406884E-04   -1.2011749034E-04
    5.3370690934E-05    9.9949604033E-05   -1.4714813304E-04
    5.6232141009E-05    2.1250844831E-04   -2.1942564422E-04
   -3.8744873178E-03    4.7351177888E-03    6.3451326748E-03
    1.8805032231E-02   -3.7552161661E-03    1.5989958736E-02
   -2.4645856423E-02    8.3185254613E-03   -1.9677153917E-02
   -3.2447980053E-03    8.1738500370E-03    4.7336821411E-03
   -0.0000000000E+00   -0.0000000000E+00   -0.0000000000E+00
   -0.0000000000E+00   -0.0000000000E+00   -0.0000000000E+00
   -1.9337851661E-03   -1.6332585445E-03   -6.2490001466E-04
   -4.8161821234E-04    5.0504803852E-04    5.6689174437E-04
    1.4271085892E-04    1.0303378403E-04   -3.4944022907E-05
   -0.0000000000E+00   -0.0000000000E+00   -0.0000000000E+00
   -0.0000000000E+00   -0.0000000000E+00   -0.0000000000E+00
   -0.0000000000E+00   -0.0000000000E+00   -0.0000000000E+00
   -0.0000000000E+00   -0.0000000000E+00   -0.0000000000E+00
    4.2667212371E-03    2.6599423086E-03    1.9182110665E-03
   -0.0000000000E+00   -0.0000000000E+00   -0.0000000000E+00
   -0.0000000000E+00   -0.0000000000E+00   -0.0000000000E+00
   -7.3663895323E-05    6.0121387031E-05    7.4320057843E-04
   -0.0000000000E+00   -0.0000000000E+00   -0.0000000000E+00
    3.0638072662E-04   -6.7865225250E-06    4.8751085254E-05
   -0.0000000000E+00   -0.0000000000E+00   -0.0000000000E+00
   -0.0000000000E+00   -0.0000000000E+00   -0.0000000000E+00
   -0.0000000000E+00   -0.0000000000E+00   -0.0000000000E+00
    2.3330275442E-04    4.6041814671E-04   -8.8098558829E-05
    1.8656569988E-04   -6.8928585683E-05   -4.3002275185E-04
    7.8856391767E-03   -1.4567316040E-02   -4.7491890784E-03
   -0.0000000000E+00   -0.0000000000E+00   -0.0000000000E+00
   -0.0000000000E+00   -0.0000000000E+00   -0.0000000000E+00
   -0.0000000000E+00   -0.0000000000E+00   -0.0000000000E+00
   -0.0000000000E+00   -0.0000000000E+00   -0.0000000000E+00
   -0.0000000000E+00   -0.0000000000E+00   -0.0000000000E+00
   -4.0696339346E-05    1.0585893989E-04   -2.6887188240E-04
    1.2579728745E-04   -7.1620146757E-05   -1.1321165802E-04
    9.1687203014E-04   -1.0445757051E-03   -6.4494484287E-04
   -3.0082007896E-03    2.9084528522E-03   -8.3024351781E-04
   -0.0000000000E+00   -0.0000000000E+00   -0.0000000000E+00
   -0.0000000000E+00   -0.0000000000E+00   -0.0000000000E+00
   -0.0000000000E+00   -0.0000000000E+00   -0.0000000000E+00
   -1.0477945753E-03   -9.1911370171E-05   -5.0518234730E-04
   -0.0000000000E+00   -0.0000000000E+00   -0.0000000000E+00
   -0.0000000000E+00   -0.0000000000E+00   -0.0000000000E+00
   -0.0000000000E+00   -0.0000000000E+00   -0.0000000000E+00
   -0.0000000000E+00   -0.0000000000E+00   -0.0000000000E+00
   -0.0000000000E+00   -0.0000000000E+00   -0.0000000000E+00
    5.5814550785E-04   -2.9053544834E-04    2.3966382263E-04
   -3.0192768671E-04   -7.6402277724E-05   -1.1840972784E-04
   -2.9189452337E-04   -1.2495242825E-04    4.4370136782E-04
   -0.0000000000E+00   -0.0000000000E+00   -0.0000000000E+00
   -0.0000000000E+00   -0.0000000000E+00   -0.0000000000E+00
   -4.3585605454E-04    3.1179428341E-04    2.3447353536E-04
   -0.0000000000E+00   -0.0000000000E+00   -0.0000000000E+00
   -8.9409228655E-05    4.0279639955E-04    3.0449352471E-04
    3.4061784001E-03   -1.1387605542E-03   -3.2008924977E-04
   -0.0000000000E+00   -0.0000000000E+00   -0.0000000000E+00
    1.6368592523E-04    4.5361962855E-04    1.2971874156E-05
    2.8039011999E-04    2.6718124512E-04   -5.6135091581E-05
    1.6186081785E-04    2.6315241507E-04    4.4761568108E-06
   -3.7403858381E-03   -2.3850052990E-03    3.0762247143E-04
   -0.0000000000E+00   -0.0000000000E+00   -0.0000000000E+00
   -3.8980308589E-04    5.6097686160E-04    1.3440694124E-04
    3.2890240137E-04    2.9396487954E-04   -1.7814314811E-04
   -0.0000000000E+00   -0.0000000000E+00   -0.0000000000E+00
   -0.0000000000E+00   -0.0000000000E+00   -0.0000000000E+00
   -0.0000000000E+00   -0.0000000000E+00   -0.0000000000E+00
    2.0343264848E-04    3.1342708321E-04   -1.3267934058E-04
   -5.1730640456E-04   -3.4184392683E-05   -2.6214404324E-04
   -0.0000000000E+00   -0.0000000000E+00   -0.0000000000E+00
   -9.6237626444E-05   -6.2996445911E-04    2.0202727308E-03
   -4.6447754716E-05   -4.7794917517E-04    4.0788446837E-04
   -0.0000000000E+00   -0.0000000000E+00   -0.0000000000E+00
   -0.0000000000E+00   -0.0000000000E+00   -0.0000000000E+00
   -0.0000000000E+00   -0.0000000000E+00   -0.0000000000E+00
    4.1183581962E-03   -8.1346019338E-03   -1.5581588232E-03
   -0.0000000000E+00   -0.0000000000E+00   -0.0000000000E+00
   -0.0000000000E+00   -0.0000000000E+00   -0.0000000000E+00
   -5.5964889727E-03    7.1240746872E-04   -4.0096111297E-03
   -0.0000000000E+00   -0.0000000000E+00   -0.0000000000E+00
   -5.4354296028E-03   -1.4665493449E-03    9.0480958001E-04
   -0.0000000000E+00   -0.0000000000E+00   -0.0000000000E+00
    2.4390698464E-04    6.6542774568E-05   -2.1691730045E-05
   -0.0000000000E+00   -0.0000000000E+00   -0.0000000000E+00
   -1.7757871679E-03   -5.5615006026E-03   -6.1531861396E-03
   -0.0000000000E+00   -0.0000000000E+00   -0.0000000000E+00
    2.6235709962E-04    1.1521114784E-04   -1.6715240809E-04
   -0.0000000000E+00   -0.0000000000E+00   -0.0000000000E+00
    1.3203546830E-04    1.8432291204E-04   -5.2106484200E-05
    1.9686732587E-04    2.2220268568E-04   -4.2362084794E-05
   -0.0000000000E+00   -0.0000000000E+00   -0.0000000000E+00
    2.7769070253E-03   -3.7867854989E-04    1.9916499036E-03
   -0.0000000000E+00   -0.0000000000E+00   -0.0000000000E+00
    3.0587442793E-04    6.2121533479E-04   -1.5805248393E-04
   -0.0000000000E+00   -0.0000000000E+00   -0.0000000000E+00
   -0.0000000000E+00   -0.0000000000E+00   -0.0000000000E+00
   -9.3760530086E-04   -2.7853001569E-03    1.3443371268E-03
   -0.0000000000E+00   -0.0000000000E+00   -0.0000000000E+00
   -0.0000000000E+00   -0.0000000000E+00   -0.0000000000E+00
    3.6970837228E-05    5.8040815619E-05   -4.3866659511E-05
   -0.0000000000E+00   -0.0000000000E+00   -0.0000000000E+00
   -0.0000000000E+00   -0.0000000000E+00   -0.0000000000E+00
   -0.0000000000E+00   -0.0000000000E+00   -0.0000000000E+00
   -0.0000000000E+00   -0.0000000000E+00   -0.0000000000E+00
    2.2375425838E-04    1.2016383775E-04   -1.5327383499E-04
    1.6211622262E-03   -2.8313750786E-03    8.5152817185E-04
   -0.0000000000E+00   -0.0000000000E+00   -0.0000000000E+00
   -0.0000000000E+00   -0.0000000000E+00   -0.0000000000E+00
   -0.0000000000E+00   -0.0000000000E+00   -0.0000000000E+00
    8.8005028942E-05    3.4218037161E-04   -2.7769609835E-04
   -0.0000000000E+00   -0.0000000000E+00   -0.0000000000E+00
    1.5023406544E-04   -3.4736141470E-06    1.0643260970E-04
   -4.6171319316E-04   -6.2489676661E-04    1.8349197733E-04
    1.5990270137E-04    2.0133283245E-04   -1.2352575531E-07
   -0.0000000000E+00   -0.0000000000E+00   -0.0000000000E+00
   -2.6365929333E-05    1.7002215187E-05    5.1130309517E-05
   -0.0000000000E+00   -0.0000000000E+00   -0.0000000000E+00
   -9.7725834588E-06   -6.3463499596E-04   -3.0161627821E-04
   -0.0000000000E+00   -0.0000000000E+00   -0.0000000000E+00
    2.3566352215E-03   -6.2597875630E-04   -3.8321726400E-04
    1.6945026474E-04    1.8396253239E-04   -2.7567204855E-05
   -0.0000000000E+00   -0.0000000000E+00   -0.0000000000E+00
    3.0671445525E-04    3.1926828675E-04   -1.2313007278E-04
   -0.0000000000E+00   -0.0000000000E+00   -0.0000000000E+00
   -1.7682936810E-04    1.2740468185E-04    1.6048596393E-04
   -0.0000000000E+00   -0.0000000000E+00   -0.0000000000E+00
    3.3740369678E-05   -1.5302402191E-04   -2.7934918194E-04
   -0.0000000000E+00   -0.0000000000E+00   -0.0000000000E+00
   -0.0000000000E+00   -0.0000000000E+00   -0.0000000000E+00
    1.5157975812E-04    2.3668561318E-04    5.0297431282E-05
   -0.0000000000E+00   -0.0000000000E+00   -0.0000000000E+00
   -0.0000000000E+00   -0.0000000000E+00   -0.0000000000E+00
   -0.0000000000E+00   -0.0000000000E+00   -0.0000000000E+00
   -0.0000000000E+00   -0.0000000000E+00   -0.0000000000E+00
    1.4417497529E-04    2.4239174364E-04   -8.3694521902E-05
    1.7302560944E-04    1.7789621753E-04   -6.4878704672E-05
   -0.0000000000E+00   -0.0000000000E+00   -0.0000000000E+00
   -0.0000000000E+00   -0.0000000000E+00   -0.0000000000E+00
   -0.0000000000E+00   -0.0000000000E+00   -0.0000000000E+00
   -0.0000000000E+00   -0.0000000000E+00   -0.0000000000E+00
   -0.0000000000E+00   -0.0000000000E+00   -0.0000000000E+00
   -3.4721314975E-04   -1.7488539959E-05    9.8745230915E-04
   -0.0000000000E+00   -0.0000000000E+00   -0.0000000000E+00
    4.1777365183E-04    2.3516140149E-04    9.7215589536E-06
   -0.0000000000E+00   -0.0000000000E+00   -0.0000000000E+00
   -0.0000000000E+00   -0.0000000000E+00   -0.0000000000E+00
   -0.0000000000E+00   -0.0000000000E+00   -0.0000000000E+00
   -0.0000000000E+00   -0.0000000000E+00   -0.0000000000E+00
   -0.0000000000E+00   -0.0000000000E+00   -0.0000000000E+00
   -0.0000000000E+00   -0.0000000000E+00   -0.0000000000E+00
   -1.9501042898E-05    3.0788815364E-04    1.7231353548E-04
   -9.3097810555E-04   -2.4090053328E-03   -2.7397066517E-03
    1.1078899754E-04    2.1192240114E-04    2.4352187856E-04
    1.6210592240E-04    1.3983741813E-04   -3.9177755975E-05
    4.9561059058E-03   -2.1190856303E-03    5.0465204824E-03
    3.0258967418E-04    3.3318504429E-04   -1.6456321456E-04
    2.7103539471E-04    5.3845430364E-06    4.8444899009E-04
   -8.2255025587E-05   -1.3122979394E-04   -9.0503375694E-05
    2.6890302243E-04   -2.5459495621E-04   -1.3929655076E-04
    8.4114726141E-04   -1.3091347296E-03    2.1226021792E-03
    4.7214259987E-04   -5.8343243100E-04    8.5938746256E-04
    6.3784391706E-04   -3.2605975899E-03   -1.1287922031E-03
   -0.0000000000E+00   -0.0000000000E+00   -0.0000000000E+00
   -8.0390829938E-04   -5.6085379245E-04   -2.9078391671E-03
   -0.0000000000E+00   -0.0000000000E+00   -0.0000000000E+00
   -0.0000000000E+00   -0.0000000000E+00   -0.0000000000E+00
   -0.0000000000E+00   -0.0000000000E+00   -0.0000000000E+00
    7.2551805033E-04   -3.5837649192E-06   -3.2071646450E-04
   -1.9314628997E-03   -1.0334215128E-03   -2.8339103048E-04
   -1.0950735573E-04    1.4489349959E-04   -1.6511329333E-04
   -0.0000000000E+00   -0.0000000000E+00   -0.0000000000E+00
   -0.0000000000E+00   -0.0000000000E+00   -0.0000000000E+00
    1.6237509576E-04   -2.1813198137E-04    1.2110596634E-04
   -0.0000000000E+00   -0.0000000000E+00   -0.0000000000E+00
   -0.0000000000E+00   -0.0000000000E+00   -0.0000000000E+00
   -0.0000000000E+00   -0.0000000000E+00   -0.0000000000E+00
   -0.0000000000E+00   -0.0000000000E+00   -0.0000000000E+00
   -0.0000000000E+00   -0.0000000000E+00   -0.0000000000E+00
   -1.9037696096E-05    2.3695215073E-04   -1.3822979465E-04
    3.6857805195E-05    1.1961386901E-04   -2.0191429944E-04
    1.0584021338E-04    1.0482506170E-04   -6.3367519849E-05
   -0.0000000000E+00   -0.0000000000E+00   -0.0000000000E+00
   -4.0660300697E-05   -7.9579011614E-04    3.3586931551E-04
   -1.1675805066E-03   -7.3173242605E-04    3.8159436643E-05
   -4.0833019240E-04   -3.2196225339E-04   -7.7168282820E-04
   -1.1389450054E-05    2.6953122093E-04   -4.8904579152E-05
   -0.0000000000E+00   -0.0000000000E+00   -0.0000000000E+00
   -3.6611091672E-04    9.8950504303E-05    1.1526895367E-04
   -0.0000000000E+00   -0.0000000000E+00   -0.0000000000E+00
   -0.0000000000E+00   -0.0000000000E+00   -0.0000000000E+00
   -0.0000000000E+00   -0.0000000000E+00   -0.0000000000E+00
   -7.6698682949E-04    1.8607991238E-04    3.9271817778E-04
   -6.6974072396E-04   -5.6698786071E-04   -1.7482766698E-05
   -0.0000000000E+00   -0.0000000000E+00   -0.0000000000E+00
   -0.0000000000E+00   -0.0000000000E+00   -0.0000000000E+00
   -0.0000000000E+00   -0.0000000000E+00   -0.0000000000E+00
    8.3508454692E-05    6.5598211423E-04    3.3264249521E-04
   -8.2375345023E-04    3.9846093427E-04   -4.5883227959E-04
   -0.0000000000E+00   -0.0000000000E+00   -0.0000000000E+00
   -1.2118130126E-03    1.0205835498E-04   -2.5482785832E-04
   -0.0000000000E+00   -0.0000000000E+00   -0.0000000000E+00
   -7.7966348298E-04    5.4673187211E-05   -4.1488080808E-04
   -0.0000000000E+00   -0.0000000000E+00   -0.0000000000E+00
   -2.4623363014E-03   -9.0874741753E-05   -1.0414284894E-03
   -1.1655606474E-03    2.2955758724E-04   -4.3863764155E-04
   -0.0000000000E+00   -0.0000000000E+00   -0.0000000000E+00
    4.7717589084E-05    5.3162546824E-05    4.8108317439E-07
   -3.6020649874E-04   -2.7415603393E-04   -2.3147338464E-04
   -0.0000000000E+00   -0.0000000000E+00   -0.0000000000E+00
    3.1165519607E-04   -1.2097514811E-03    1.1171641972E-03
   -0.0000000000E+00   -0.0000000000E+00   -0.0000000000E+00
    2.8814885243E-04    7.0797363837E-04    9.0276448702E-04
    7.3094731070E-04    5.8518963133E-04    1.4182226609E-03
   -0.0000000000E+00   -0.0000000000E+00   -0.0000000000E+00
   -0.0000000000E+00   -0.0000000000E+00   -0.0000000000E+00
   -5.3862494559E-04   -1.0609752394E-03   -8.3900502670E-04
   -0.0000000000E+00   -0.0000000000E+00   -0.0000000000E+00
    2.9077001608E-04    1.3788886388E-04    2.8472210965E-04
   -0.0000000000E+00   -0.0000000000E+00   -0.0000000000E+00
   -0.0000000000E+00   -0.0000000000E+00   -0.0000000000E+00
   -0.0000000000E+00   -0.0000000000E+00   -0.0000000000E+00
   -0.0000000000E+00   -0.0000000000E+00   -0.0000000000E+00
   -1.0009266193E-04    1.1692159323E-04   -1.8872820434E-05
   -0.0000000000E+00   -0.0000000000E+00   -0.0000000000E+00
    9.6755474947E-05    9.4339287904E-05   -1.3219889839E-04
   -2.3098666982E-03   -1.5796243665E-05    1.0192895886E-03
    1.0155485725E-03   -3.6029708459E-03   -2.3983546539E-04
    1.8556340845E-03   -1.0735014936E-02   -7.3462053409E-03
 
 stress matrix after NEB project (eV)
    -32.44348      0.12044      0.27266
      0.12044    -33.02983     -0.07683
      0.27266     -0.07683    -24.82330
  FORCES: max atom, RMS     0.048374    0.011570
  FORCE total and by dimension    0.190115    0.040608
  Stress total and by dimension   52.535080   33.029830
 OPT: skip step - force has converged


--------------------------------------------------------------------------------------------------------


  
 reached required accuracy - stopping structural energy minimisation
     LOOP+:  cpu time 1573.2002: real time 1579.8381
    4ORBIT:  cpu time    0.0000: real time    0.0000

 total amount of memory used by VASP MPI-rank0   691102. kBytes
=======================================================================

   base      :      30000. kBytes
   nonlr-proj:      16582. kBytes
   fftplans  :      30982. kBytes
   grid      :      57864. kBytes
   one-center:       1057. kBytes
   wavefun   :     554617. kBytes

  
  
 General timing and accounting informations for this job:
 ========================================================
  
                  Total CPU time used (sec):     1679.009
                            User time (sec):     1675.421
                          System time (sec):        3.588
                         Elapsed time (sec):     1732.566
  
                   Maximum memory used (kb):      980832.
                   Average memory used (kb):           0.
  
                          Minor page faults:      3690280
                          Major page faults:          257
                 Voluntary context switches:         5545
