 279 279   0   0
  0.4087829E+02  0.2341129E-08  0.1812124E-08  0.2688337E-08  0.1500000E-16
   1.0000000000000000E-004
  CAR 
 unknown system                          
      5.98797999    -27.67334932  301     -3.54764346      1.00000000
    -27.673  0.0000E+00  0.0000E+00
    -27.561  0.0000E+00  0.0000E+00
    -27.449  0.0000E+00  0.0000E+00
    -27.337  0.0000E+00  0.0000E+00
    -27.225  0.0000E+00  0.0000E+00
    -27.112  0.0000E+00  0.0000E+00
    -27.000  0.0000E+00  0.0000E+00
    -26.888  0.0000E+00  0.0000E+00
    -26.776  0.1695E-16  0.1902E-17
    -26.664  0.6650E-14  0.7481E-15
    -26.551  0.1405E-11  0.1584E-12
    -26.439  0.1602E-09  0.1814E-10
    -26.327  0.9879E-08  0.1127E-08
    -26.215  0.3303E-06  0.3818E-07
    -26.102  0.6004E-05  0.7118E-06
    -25.990  0.5953E-04  0.7392E-05
    -25.878  0.3230E-03  0.4364E-04
    -25.766  0.9616E-03  0.1515E-03
    -25.654  0.1574E-02  0.3281E-03
    -25.541  0.1417E-02  0.4871E-03
    -25.429  0.7022E-03  0.5659E-03
    -25.317  0.1912E-03  0.5874E-03
    -25.205  0.2988E-04  0.5907E-03
    -25.093  0.2352E-04  0.5934E-03
    -24.980  0.1896E-03  0.6146E-03
    -24.868  0.9922E-03  0.7260E-03
    -24.756  0.3136E-02  0.1078E-02
    -24.644  0.6338E-02  0.1789E-02
    -24.532  0.9317E-02  0.2834E-02
    -24.419  0.1211E-01  0.4193E-02
    -24.307  0.1522E-01  0.5901E-02
    -24.195  0.1812E-01  0.7935E-02
    -24.083  0.2074E-01  0.1026E-01
    -23.971  0.2306E-01  0.1285E-01
    -23.858  0.2493E-01  0.1565E-01
    -23.746  0.2635E-01  0.1860E-01
    -23.634  0.2747E-01  0.2169E-01
    -23.522  0.2852E-01  0.2489E-01
    -23.410  0.2949E-01  0.2819E-01
    -23.297  0.3076E-01  0.3165E-01
    -23.185  0.3267E-01  0.3531E-01
    -23.073  0.3559E-01  0.3931E-01
    -22.961  0.4067E-01  0.4387E-01
    -22.849  0.4841E-01  0.4930E-01
    -22.736  0.5707E-01  0.5570E-01
    -22.624  0.6194E-01  0.6265E-01
    -22.512  0.5934E-01  0.6931E-01
    -22.400  0.5127E-01  0.7507E-01
    -22.288  0.4145E-01  0.7972E-01
    -22.175  0.3162E-01  0.8326E-01
    -22.063  0.2275E-01  0.8582E-01
    -21.951  0.1562E-01  0.8757E-01
    -21.839  0.9920E-02  0.8868E-01
    -21.727  0.6053E-02  0.8936E-01
    -21.614  0.4324E-02  0.8985E-01
    -21.502  0.3027E-02  0.9019E-01
    -21.390  0.1430E-02  0.9035E-01
    -21.278  0.4099E-03  0.9039E-01
    -21.165  0.2044E-03  0.9042E-01
    -21.053  0.5936E-03  0.9048E-01
    -20.941  0.1314E-02  0.9063E-01
    -20.829  0.1612E-02  0.9081E-01
    -20.717  0.1089E-02  0.9093E-01
    -20.604  0.4044E-03  0.9098E-01
    -20.492  0.8245E-04  0.9099E-01
    -20.380  0.9201E-05  0.9099E-01
    -20.268  0.5604E-06  0.9099E-01
    -20.156  0.1857E-07  0.9099E-01
    -20.043  0.3339E-09  0.9099E-01
    -19.931  0.3247E-11  0.9099E-01
    -19.819  0.1718E-13  0.9099E-01
    -19.707  0.4365E-13  0.9099E-01
    -19.595  0.7476E-11  0.9099E-01
    -19.482  0.6921E-09  0.9099E-01
    -19.370  0.3468E-07  0.9099E-01
    -19.258  0.9431E-06  0.9099E-01
    -19.146  0.1396E-04  0.9099E-01
    -19.034  0.1129E-03  0.9100E-01
    -18.921  0.4996E-03  0.9106E-01
    -18.809  0.1215E-02  0.9120E-01
    -18.697  0.1624E-02  0.9138E-01
    -18.585  0.1195E-02  0.9151E-01
    -18.473  0.4835E-03  0.9157E-01
    -18.360  0.1074E-03  0.9158E-01
    -18.248  0.1307E-04  0.9158E-01
    -18.136  0.8685E-06  0.9158E-01
    -18.024  0.3141E-07  0.9158E-01
    -17.912  0.6164E-09  0.9158E-01
    -17.799  0.6546E-11  0.9158E-01
    -17.687  0.3758E-13  0.9158E-01
    -17.575  0.1407E-13  0.9158E-01
    -17.463  0.2719E-11  0.9158E-01
    -17.351  0.2858E-09  0.9158E-01
    -17.238  0.1625E-07  0.9158E-01
    -17.126  0.5013E-06  0.9158E-01
    -17.014  0.8411E-05  0.9158E-01
    -16.902  0.7702E-04  0.9159E-01
    -16.790  0.3860E-03  0.9163E-01
    -16.677  0.1062E-02  0.9175E-01
    -16.565  0.1606E-02  0.9193E-01
    -16.453  0.1337E-02  0.9208E-01
    -16.341  0.6121E-03  0.9215E-01
    -16.228  0.1539E-03  0.9217E-01
    -16.116  0.2122E-04  0.9217E-01
    -16.004  0.1598E-05  0.9217E-01
    -15.892  0.6552E-07  0.9217E-01
    -15.780  0.1596E-08  0.9217E-01
    -15.667  0.8652E-08  0.9217E-01
    -15.555  0.2949E-06  0.9217E-01
    -15.443  0.5477E-05  0.9217E-01
    -15.331  0.5548E-04  0.9218E-01
    -15.219  0.3075E-03  0.9221E-01
    -15.106  0.9349E-03  0.9232E-01
    -14.994  0.1563E-02  0.9249E-01
    -14.882  0.1447E-02  0.9266E-01
    -14.770  0.8188E-03  0.9275E-01
    -14.658  0.6550E-03  0.9282E-01
    -14.545  0.1340E-02  0.9297E-01
    -14.433  0.2445E-02  0.9325E-01
    -14.321  0.3425E-02  0.9363E-01
    -14.209  0.4011E-02  0.9408E-01
    -14.097  0.4175E-02  0.9455E-01
    -13.984  0.4764E-02  0.9508E-01
    -13.872  0.6643E-02  0.9583E-01
    -13.760  0.9034E-02  0.9684E-01
    -13.648  0.1054E-01  0.9802E-01
    -13.536  0.1133E-01  0.9930E-01
    -13.423  0.1210E-01  0.1007E+00
    -13.311  0.1224E-01  0.1020E+00
    -13.199  0.1137E-01  0.1033E+00
    -13.087  0.1060E-01  0.1045E+00
    -12.975  0.1109E-01  0.1057E+00
    -12.862  0.1226E-01  0.1071E+00
    -12.750  0.1286E-01  0.1086E+00
    -12.638  0.1303E-01  0.1100E+00
    -12.526  0.1360E-01  0.1115E+00
    -12.414  0.1436E-01  0.1132E+00
    -12.301  0.1446E-01  0.1148E+00
    -12.189  0.1357E-01  0.1163E+00
    -12.077  0.1254E-01  0.1177E+00
    -11.965  0.1267E-01  0.1191E+00
    -11.853  0.1371E-01  0.1207E+00
    -11.740  0.1424E-01  0.1223E+00
    -11.628  0.1405E-01  0.1238E+00
    -11.516  0.1438E-01  0.1255E+00
    -11.404  0.1571E-01  0.1272E+00
    -11.292  0.1710E-01  0.1291E+00
    -11.179  0.1865E-01  0.1312E+00
    -11.067  0.2196E-01  0.1337E+00
    -10.955  0.2678E-01  0.1367E+00
    -10.843  0.3073E-01  0.1401E+00
    -10.730  0.3325E-01  0.1439E+00
    -10.618  0.3555E-01  0.1479E+00
    -10.506  0.3753E-01  0.1521E+00
    -10.394  0.3852E-01  0.1564E+00
    -10.282  0.3844E-01  0.1607E+00
    -10.169  0.3808E-01  0.1650E+00
    -10.057  0.3695E-01  0.1691E+00
     -9.945  0.3320E-01  0.1729E+00
     -9.833  0.2763E-01  0.1760E+00
     -9.721  0.2147E-01  0.1784E+00
     -9.608  0.1447E-01  0.1800E+00
     -9.496  0.9794E-02  0.1811E+00
     -9.384  0.1106E-01  0.1823E+00
     -9.272  0.1480E-01  0.1840E+00
     -9.160  0.1489E-01  0.1857E+00
     -9.047  0.1229E-01  0.1870E+00
     -8.935  0.1214E-01  0.1884E+00
     -8.823  0.1486E-01  0.1901E+00
     -8.711  0.1685E-01  0.1920E+00
     -8.599  0.1696E-01  0.1939E+00
     -8.486  0.1826E-01  0.1959E+00
     -8.374  0.2254E-01  0.1984E+00
     -8.262  0.2656E-01  0.2014E+00
     -8.150  0.2807E-01  0.2046E+00
     -8.038  0.3013E-01  0.2080E+00
     -7.925  0.3507E-01  0.2119E+00
     -7.813  0.4099E-01  0.2165E+00
     -7.701  0.4539E-01  0.2216E+00
     -7.589  0.4770E-01  0.2269E+00
     -7.477  0.4927E-01  0.2325E+00
     -7.364  0.5234E-01  0.2383E+00
     -7.252  0.5652E-01  0.2447E+00
     -7.140  0.5956E-01  0.2514E+00
     -7.028  0.6151E-01  0.2583E+00
     -6.916  0.6365E-01  0.2654E+00
     -6.803  0.6523E-01  0.2727E+00
     -6.691  0.6457E-01  0.2800E+00
     -6.579  0.6258E-01  0.2870E+00
     -6.467  0.6143E-01  0.2939E+00
     -6.355  0.6117E-01  0.3007E+00
     -6.242  0.6071E-01  0.3076E+00
     -6.130  0.5970E-01  0.3143E+00
     -6.018  0.5885E-01  0.3209E+00
     -5.906  0.5859E-01  0.3274E+00
     -5.793  0.5853E-01  0.3340E+00
     -5.681  0.5777E-01  0.3405E+00
     -5.569  0.5570E-01  0.3467E+00
     -5.457  0.5285E-01  0.3527E+00
     -5.345  0.4913E-01  0.3582E+00
     -5.232  0.4257E-01  0.3629E+00
     -5.120  0.3249E-01  0.3666E+00
     -5.008  0.2231E-01  0.3691E+00
     -4.896  0.1497E-01  0.3708E+00
     -4.784  0.9856E-02  0.3719E+00
     -4.671  0.5819E-02  0.3725E+00
     -4.559  0.3203E-02  0.3729E+00
     -4.447  0.2161E-02  0.3731E+00
     -4.335  0.1514E-02  0.3733E+00
     -4.223  0.7161E-03  0.3734E+00
     -4.110  0.1941E-03  0.3734E+00
     -3.998  0.2905E-04  0.3734E+00
     -3.886  0.2380E-05  0.3734E+00
     -3.774  0.1063E-06  0.3734E+00
     -3.662  0.2579E-08  0.3734E+00
     -3.549  0.3389E-10  0.3734E+00
     -3.437  0.2407E-12  0.3734E+00
     -3.325  0.9214E-15  0.3734E+00
     -3.213  0.2338E-17  0.3734E+00
     -3.101  0.0000E+00  0.3734E+00
     -2.988  0.0000E+00  0.3734E+00
     -2.876  0.0000E+00  0.3734E+00
     -2.764  0.0000E+00  0.3734E+00
     -2.652  0.0000E+00  0.3734E+00
     -2.540  0.0000E+00  0.3734E+00
     -2.427  0.0000E+00  0.3734E+00
     -2.315  0.0000E+00  0.3734E+00
     -2.203  0.0000E+00  0.3734E+00
     -2.091  0.0000E+00  0.3734E+00
     -1.979  0.2923E-18  0.3734E+00
     -1.866  0.1587E-15  0.3734E+00
     -1.754  0.5004E-13  0.3734E+00
     -1.642  0.8523E-11  0.3734E+00
     -1.530  0.7874E-09  0.3734E+00
     -1.418  0.3964E-07  0.3734E+00
     -1.305  0.1095E-05  0.3734E+00
     -1.193  0.1672E-04  0.3734E+00
     -1.081  0.1426E-03  0.3734E+00
     -0.969  0.6875E-03  0.3735E+00
     -0.856  0.1896E-02  0.3737E+00
     -0.744  0.3042E-02  0.3741E+00
     -0.632  0.2992E-02  0.3744E+00
     -0.520  0.2250E-02  0.3746E+00
     -0.408  0.1929E-02  0.3749E+00
     -0.295  0.1673E-02  0.3751E+00
     -0.183  0.1189E-02  0.3752E+00
     -0.071  0.1193E-02  0.3753E+00
      0.041  0.1778E-02  0.3755E+00
      0.153  0.2496E-02  0.3758E+00
      0.266  0.3683E-02  0.3762E+00
      0.378  0.5183E-02  0.3768E+00
      0.490  0.5849E-02  0.3775E+00
      0.602  0.5985E-02  0.3781E+00
      0.714  0.6810E-02  0.3789E+00
      0.827  0.8191E-02  0.3798E+00
      0.939  0.9171E-02  0.3808E+00
      1.051  0.9869E-02  0.3819E+00
      1.163  0.1101E-01  0.3832E+00
      1.275  0.1229E-01  0.3846E+00
      1.388  0.1319E-01  0.3860E+00
      1.500  0.1379E-01  0.3876E+00
      1.612  0.1419E-01  0.3892E+00
      1.724  0.1454E-01  0.3908E+00
      1.836  0.1517E-01  0.3925E+00
      1.949  0.1618E-01  0.3943E+00
      2.061  0.1745E-01  0.3963E+00
      2.173  0.1904E-01  0.3984E+00
      2.285  0.2116E-01  0.4008E+00
      2.397  0.2372E-01  0.4035E+00
      2.510  0.2667E-01  0.4064E+00
      2.622  0.2978E-01  0.4098E+00
      2.734  0.3219E-01  0.4134E+00
      2.846  0.3396E-01  0.4172E+00
      2.958  0.3629E-01  0.4213E+00
      3.071  0.3954E-01  0.4257E+00
      3.183  0.4294E-01  0.4305E+00
      3.295  0.4595E-01  0.4357E+00
      3.407  0.4845E-01  0.4411E+00
      3.519  0.5047E-01  0.4468E+00
      3.632  0.5220E-01  0.4526E+00
      3.744  0.5311E-01  0.4586E+00
      3.856  0.5047E-01  0.4643E+00
      3.968  0.4013E-01  0.4688E+00
      4.081  0.2336E-01  0.4714E+00
      4.193  0.8957E-02  0.4724E+00
      4.305  0.2110E-02  0.4726E+00
      4.417  0.2932E-03  0.4727E+00
      4.529  0.2340E-04  0.4727E+00
      4.642  0.1055E-05  0.4727E+00
      4.754  0.2656E-07  0.4727E+00
      4.866  0.3697E-09  0.4727E+00
      4.978  0.2828E-11  0.4727E+00
      5.090  0.1183E-13  0.4727E+00
      5.203  0.2598E-16  0.4727E+00
      5.315  0.0000E+00  0.4727E+00
      5.427  0.0000E+00  0.4727E+00
      5.539  0.0000E+00  0.4727E+00
      5.651  0.0000E+00  0.4727E+00
      5.764  0.0000E+00  0.4727E+00
      5.876  0.0000E+00  0.4727E+00
      5.988  0.0000E+00  0.4727E+00
