       N       E                     dE             d eps       ncg     rms          rms(c)
DAV:   1     0.129167473545E+05    0.12917E+05   -0.49711E+05  8768   0.119E+03
DAV:   2     0.515235893511E+03   -0.12402E+05   -0.11994E+05 11360   0.305E+02
DAV:   3    -0.204338865510E+04   -0.25586E+04   -0.25478E+04  9376   0.148E+02
DAV:   4    -0.213110734544E+04   -0.87719E+02   -0.87386E+02  9472   0.319E+01
DAV:   5    -0.213336674118E+04   -0.22594E+01   -0.22565E+01 10240   0.458E+00    0.130E+02
RMM:   6    -0.188353703414E+04    0.24983E+03   -0.10676E+03  8000   0.315E+01    0.532E+01
RMM:   7    -0.188162129373E+04    0.19157E+01   -0.52875E+01  8000   0.616E+00    0.291E+01
RMM:   8    -0.188145728639E+04    0.16401E+00   -0.15839E+01  8000   0.346E+00    0.134E+01
RMM:   9    -0.187944008176E+04    0.20172E+01   -0.52574E+00  8000   0.202E+00    0.278E+00
RMM:  10    -0.187913941934E+04    0.30066E+00   -0.66731E-01  8000   0.763E-01    0.151E+00
RMM:  11    -0.187895472866E+04    0.18469E+00   -0.23163E-01  8000   0.449E-01    0.869E-01
RMM:  12    -0.187888073545E+04    0.73993E-01   -0.86326E-02  8000   0.259E-01    0.283E-01
RMM:  13    -0.187885630485E+04    0.24431E-01   -0.24096E-02  8122   0.129E-01    0.295E-01
RMM:  14    -0.187884341740E+04    0.12887E-01   -0.23811E-02  8000   0.125E-01    0.123E-01
RMM:  15    -0.187884722003E+04   -0.38026E-02   -0.87099E-03  8016   0.683E-02    0.835E-02
RMM:  16    -0.187885522625E+04   -0.80062E-02   -0.55195E-03  8000   0.531E-02    0.475E-02
RMM:  17    -0.187886291724E+04   -0.76910E-02   -0.13187E-03  8013   0.273E-02    0.232E-02
RMM:  18    -0.187886677735E+04   -0.38601E-02   -0.42721E-04  8009   0.142E-02    0.210E-02
RMM:  19    -0.187886974633E+04   -0.29690E-02   -0.36846E-04  8000   0.129E-02    0.123E-02
RMM:  20    -0.187887052459E+04   -0.77826E-03   -0.74585E-05  7304   0.587E-03    0.457E-03
RMM:  21    -0.187887093513E+04   -0.41054E-03   -0.22393E-05  7115   0.333E-03    0.383E-03
RMM:  22    -0.187887111117E+04   -0.17604E-03   -0.65669E-06  6341   0.183E-03    0.201E-03
RMM:  23    -0.187887121965E+04   -0.10848E-03   -0.45403E-06  6149   0.140E-03    0.106E-03
RMM:  24    -0.187887125652E+04   -0.36868E-04   -0.13090E-06  4930   0.837E-04    0.912E-04
RMM:  25    -0.187887127069E+04   -0.14165E-04   -0.60584E-07  3976   0.540E-04    0.310E-04
RMM:  26    -0.187887127725E+04   -0.65639E-05   -0.26678E-07  4022   0.419E-04    0.328E-04
RMM:  27    -0.187887128095E+04   -0.36945E-05   -0.13134E-07  3587   0.314E-04    0.130E-04
RMM:  28    -0.187887128304E+04   -0.20889E-05   -0.62327E-08  2919   0.252E-04    0.101E-04
RMM:  29    -0.187887128386E+04   -0.82898E-06   -0.16565E-08  2092   0.213E-04
   1 F= -.19032229E+04 E0= -.19032229E+04  d E =-.841678E-11
       N       E                     dE             d eps       ncg     rms          rms(c)
DAV:   1    -0.187886918398E+04    0.20991E-02   -0.49969E-01  8128   0.441E-01    0.162E-01
RMM:   2    -0.187886898366E+04    0.20032E-03   -0.22767E-03  7169   0.345E-02    0.179E-01
RMM:   3    -0.187886893431E+04    0.49352E-04   -0.10520E-04  6461   0.523E-03    0.145E-01
RMM:   4    -0.187886893959E+04   -0.52809E-05   -0.21600E-04  6618   0.755E-03    0.602E-02
RMM:   5    -0.187886891388E+04    0.25707E-04   -0.65891E-05  6308   0.477E-03    0.893E-03
RMM:   6    -0.187886891472E+04   -0.83676E-06   -0.22895E-06  4593   0.120E-03
   2 F= -.19032200E+04 E0= -.19032200E+04  d E =-.228878E-10
       N       E                     dE             d eps       ncg     rms          rms(c)
DAV:   1    -0.187886875207E+04    0.16180E-03   -0.19932E+00  8320   0.880E-01    0.327E-01
RMM:   2    -0.187886794958E+04    0.80250E-03   -0.87784E-03  7532   0.653E-02    0.352E-01
RMM:   3    -0.187886776110E+04    0.18847E-03   -0.37963E-04  6704   0.996E-03    0.283E-01
RMM:   4    -0.187886776022E+04    0.88704E-06   -0.93871E-04  7114   0.155E-02    0.108E-01
RMM:   5    -0.187886766733E+04    0.92889E-04   -0.22831E-04  6735   0.888E-03    0.168E-02
RMM:   6    -0.187886766859E+04   -0.12573E-05   -0.85923E-06  5577   0.217E-03    0.941E-03
RMM:   7    -0.187886767107E+04   -0.24863E-05   -0.58778E-06  4949   0.134E-03    0.289E-03
RMM:   8    -0.187886767277E+04   -0.17007E-05   -0.52967E-07  3760   0.584E-04    0.116E-03
RMM:   9    -0.187886767457E+04   -0.17991E-05   -0.25083E-07  3712   0.406E-04    0.435E-04
RMM:  10    -0.187886767530E+04   -0.72796E-06   -0.50879E-08  2627   0.258E-04
   3 F= -.19032198E+04 E0= -.19032198E+04  d E =-.745723E-10
       N       E                     dE             d eps       ncg     rms          rms(c)
DAV:   1    -0.187886655678E+04    0.11178E-02   -0.10555E+00  8128   0.615E-01    0.252E-01
RMM:   2    -0.187886588365E+04    0.67313E-03   -0.50058E-03  7413   0.488E-02    0.225E-01
RMM:   3    -0.187886567944E+04    0.20421E-03   -0.35440E-04  6688   0.941E-03    0.144E-01
RMM:   4    -0.187886565707E+04    0.22371E-04   -0.61189E-04  6830   0.116E-02    0.603E-02
RMM:   5    -0.187886562485E+04    0.32214E-04   -0.74855E-05  6350   0.531E-03    0.134E-02
RMM:   6    -0.187886562489E+04   -0.38883E-07   -0.55079E-06  5095   0.157E-03
   4 F= -.19032176E+04 E0= -.19032176E+04  d E =-.157881E-11
       N       E                     dE             d eps       ncg     rms          rms(c)
DAV:   1    -0.187886833479E+04   -0.27099E-02   -0.21173E+00  8000   0.854E-01    0.342E-01
RMM:   2    -0.187886692693E+04    0.14079E-02   -0.86816E-03  7498   0.665E-02    0.203E-01
RMM:   3    -0.187886648256E+04    0.44437E-03   -0.26395E-03  7202   0.225E-02    0.774E-02
RMM:   4    -0.187886647240E+04    0.10165E-04   -0.37847E-04  6680   0.105E-02    0.329E-02
RMM:   5    -0.187886645919E+04    0.13209E-04   -0.21535E-05  5964   0.321E-03    0.143E-02
RMM:   6    -0.187886645974E+04   -0.55411E-06   -0.13175E-05  5467   0.195E-03    0.410E-03
RMM:   7    -0.187886645986E+04   -0.11973E-06   -0.80332E-07  3668   0.686E-04
   5 F= -.19032178E+04 E0= -.19032178E+04  d E =-.153570E-11
       N       E                     dE             d eps       ncg     rms          rms(c)
DAV:   1    -0.187886893590E+04   -0.24762E-02   -0.10364E+00  8064   0.636E-01    0.234E-01
RMM:   2    -0.187886845612E+04    0.47979E-03   -0.45098E-03  7410   0.478E-02    0.241E-01
RMM:   3    -0.187886831472E+04    0.14139E-03   -0.21925E-04  6573   0.788E-03    0.180E-01
RMM:   4    -0.187886829653E+04    0.18193E-04   -0.48657E-04  6957   0.108E-02    0.756E-02
RMM:   5    -0.187886825264E+04    0.43896E-04   -0.10888E-04  6519   0.619E-03    0.118E-02
RMM:   6    -0.187886825303E+04   -0.39891E-06   -0.42460E-06  5063   0.161E-03
   6 F= -.19032190E+04 E0= -.19032190E+04  d E =-.889339E-11
       N       E                     dE             d eps       ncg     rms          rms(c)
DAV:   1    -0.187886790452E+04    0.34812E-03   -0.20993E+00  8000   0.941E-01    0.345E-01
RMM:   2    -0.187886690989E+04    0.99463E-03   -0.10038E-02  7669   0.721E-02    0.417E-01
RMM:   3    -0.187886671083E+04    0.19906E-03   -0.33331E-04  6751   0.983E-03    0.364E-01
RMM:   4    -0.187886666890E+04    0.41926E-04   -0.10473E-03  7397   0.166E-02    0.156E-01
RMM:   5    -0.187886651661E+04    0.15229E-03   -0.43528E-04  7051   0.120E-02    0.252E-02
RMM:   6    -0.187886651703E+04   -0.42112E-06   -0.13605E-05  6027   0.286E-03    0.207E-02
RMM:   7    -0.187886651614E+04    0.89422E-06   -0.74772E-06  5258   0.155E-03
   7 F= -.19032190E+04 E0= -.19032190E+04  d E =-.124683E-11
       N       E                     dE             d eps       ncg     rms          rms(c)
DAV:   1    -0.187886858814E+04   -0.20711E-02   -0.10283E+00  8320   0.713E-01    0.221E-01
RMM:   2    -0.187886865912E+04   -0.70971E-04   -0.82287E-03  7398   0.566E-02    0.201E-01
RMM:   3    -0.187886853823E+04    0.12088E-03   -0.43118E-04  6695   0.107E-02    0.142E-01
RMM:   4    -0.187886853081E+04    0.74202E-05   -0.48629E-04  7075   0.118E-02    0.646E-02
RMM:   5    -0.187886849648E+04    0.34331E-04   -0.74927E-05  6437   0.527E-03    0.140E-02
RMM:   6    -0.187886849450E+04    0.19882E-05   -0.61694E-06  5103   0.159E-03    0.469E-03
RMM:   7    -0.187886849432E+04    0.17307E-06   -0.16278E-06  4154   0.813E-04
   8 F= -.19032200E+04 E0= -.19032200E+04  d E =-.507007E-11
       N       E                     dE             d eps       ncg     rms          rms(c)
DAV:   1    -0.187886851779E+04   -0.23294E-04   -0.20122E+00  8096   0.950E-01    0.317E-01
RMM:   2    -0.187886828225E+04    0.23554E-03   -0.12063E-02  7359   0.666E-02    0.185E-01
RMM:   3    -0.187886809214E+04    0.19011E-03   -0.13482E-03  7218   0.184E-02    0.740E-02
RMM:   4    -0.187886811224E+04   -0.20094E-04   -0.34249E-04  6861   0.101E-02    0.338E-02
RMM:   5    -0.187886809913E+04    0.13112E-04   -0.33493E-05  6146   0.364E-03    0.136E-02
RMM:   6    -0.187886809715E+04    0.19735E-05   -0.20773E-05  5590   0.222E-03    0.511E-03
RMM:   7    -0.187886809815E+04   -0.99407E-06   -0.10972E-06  3990   0.737E-04
   9 F= -.19032200E+04 E0= -.19032200E+04  d E =-.322040E-11
       N       E                     dE             d eps       ncg     rms          rms(c)
DAV:   1    -0.187886625192E+04    0.18452E-02   -0.10594E+00  8320   0.694E-01    0.226E-01
RMM:   2    -0.187886639850E+04   -0.14658E-03   -0.81401E-03  7262   0.562E-02    0.133E-01
RMM:   3    -0.187886628396E+04    0.11453E-03   -0.10557E-03  7033   0.158E-02    0.484E-02
RMM:   4    -0.187886629490E+04   -0.10932E-04   -0.15230E-04  6492   0.689E-03    0.228E-02
RMM:   5    -0.187886628966E+04    0.52330E-05   -0.17388E-05  5652   0.252E-03    0.110E-02
RMM:   6    -0.187886629241E+04   -0.27473E-05   -0.16364E-05  5085   0.184E-03    0.422E-03
RMM:   7    -0.187886629373E+04   -0.13199E-05   -0.62611E-07  3723   0.590E-04    0.213E-03
RMM:   8    -0.187886629649E+04   -0.27618E-05   -0.93860E-07  3577   0.526E-04    0.812E-04
RMM:   9    -0.187886629792E+04   -0.14282E-05   -0.10697E-07  2610   0.292E-04    0.415E-04
RMM:  10    -0.187886630098E+04   -0.30584E-05   -0.22639E-07  3388   0.340E-04    0.247E-04
RMM:  11    -0.187886630175E+04   -0.77141E-06   -0.37667E-08  2177   0.227E-04
  10 F= -.19032171E+04 E0= -.19032171E+04  d E =-.462540E-11
       N       E                     dE             d eps       ncg     rms          rms(c)
DAV:   1    -0.187886467487E+04    0.16261E-02   -0.21090E+00  8224   0.978E-01    0.313E-01
RMM:   2    -0.187886512816E+04   -0.45329E-03   -0.15266E-02  7297   0.781E-02    0.184E-01
RMM:   3    -0.187886484590E+04    0.28226E-03   -0.21168E-03  7134   0.217E-02    0.483E-02
RMM:   4    -0.187886485663E+04   -0.10735E-04   -0.14150E-04  6343   0.648E-03    0.210E-02
RMM:   5    -0.187886485708E+04   -0.44651E-06   -0.53152E-05  6152   0.333E-03    0.104E-02
RMM:   6    -0.187886486153E+04   -0.44522E-05   -0.80941E-06  4934   0.161E-03    0.549E-03
RMM:   7    -0.187886486685E+04   -0.53160E-05   -0.22767E-06  4019   0.811E-04    0.283E-03
RMM:   8    -0.187886487623E+04   -0.93866E-05   -0.18111E-06  4332   0.765E-04    0.164E-03
RMM:   9    -0.187886488064E+04   -0.44019E-05   -0.40684E-07  3383   0.406E-04    0.755E-04
RMM:  10    -0.187886489207E+04   -0.11439E-04   -0.96825E-07  4018   0.546E-04    0.764E-04
RMM:  11    -0.187886489487E+04   -0.27976E-05   -0.21211E-07  3044   0.326E-04    0.393E-04
RMM:  12    -0.187886489993E+04   -0.50596E-05   -0.39376E-07  3697   0.390E-04    0.335E-04
RMM:  13    -0.187886490115E+04   -0.12205E-05   -0.74895E-08  2469   0.253E-04    0.120E-04
RMM:  14    -0.187886490235E+04   -0.11975E-05   -0.52818E-08  2461   0.246E-04    0.100E-04
RMM:  15    -0.187886490287E+04   -0.51550E-06   -0.20008E-08  2108   0.223E-04
  11 F= -.19032174E+04 E0= -.19032174E+04  d E =-.352956E-11
       N       E                     dE             d eps       ncg     rms          rms(c)
DAV:   1    -0.187886619958E+04   -0.12972E-02   -0.10153E+00  8320   0.664E-01    0.244E-01
RMM:   2    -0.187886622017E+04   -0.20591E-04   -0.84421E-03  7273   0.564E-02    0.138E-01
RMM:   3    -0.187886606558E+04    0.15459E-03   -0.11447E-03  7031   0.161E-02    0.423E-02
RMM:   4    -0.187886606904E+04   -0.34663E-05   -0.89208E-05  6222   0.523E-03    0.180E-02
RMM:   5    -0.187886606662E+04    0.24231E-05   -0.27045E-05  5599   0.234E-03    0.596E-03
RMM:   6    -0.187886606816E+04   -0.15354E-05   -0.23964E-06  4121   0.954E-04    0.336E-03
RMM:   7    -0.187886607108E+04   -0.29262E-05   -0.96336E-07  3918   0.622E-04    0.127E-03
RMM:   8    -0.187886607344E+04   -0.23609E-05   -0.27462E-07  3487   0.415E-04    0.705E-04
RMM:   9    -0.187886607552E+04   -0.20743E-05   -0.13743E-07  3083   0.317E-04    0.525E-04
RMM:  10    -0.187886608013E+04   -0.46113E-05   -0.46011E-07  3905   0.426E-04    0.381E-04
RMM:  11    -0.187886608148E+04   -0.13489E-05   -0.77938E-08  2548   0.260E-04    0.291E-04
RMM:  12    -0.187886608353E+04   -0.20481E-05   -0.14176E-07  3182   0.287E-04    0.150E-04
RMM:  13    -0.187886608427E+04   -0.74442E-06   -0.37989E-08  2269   0.227E-04
  12 F= -.19032178E+04 E0= -.19032178E+04  d E =-.503883E-11
       N       E                     dE             d eps       ncg     rms          rms(c)
DAV:   1    -0.187886609230E+04   -0.87702E-05   -0.20519E+00  8064   0.927E-01    0.349E-01
RMM:   2    -0.187886594077E+04    0.15152E-03   -0.15146E-02  7381   0.795E-02    0.199E-01
RMM:   3    -0.187886570802E+04    0.23275E-03   -0.24595E-03  7193   0.237E-02    0.512E-02
RMM:   4    -0.187886570329E+04    0.47330E-05   -0.14022E-04  6522   0.678E-03    0.265E-02
RMM:   5    -0.187886569917E+04    0.41224E-05   -0.38618E-05  6004   0.298E-03    0.112E-02
RMM:   6    -0.187886570243E+04   -0.32614E-05   -0.74564E-06  5021   0.168E-03    0.796E-03
RMM:   7    -0.187886570779E+04   -0.53572E-05   -0.19476E-06  4245   0.892E-04    0.242E-03
RMM:   8    -0.187886571413E+04   -0.63433E-05   -0.89048E-07  3901   0.599E-04    0.112E-03
RMM:   9    -0.187886572077E+04   -0.66447E-05   -0.50112E-07  3776   0.461E-04    0.686E-04
RMM:  10    -0.187886572870E+04   -0.79290E-05   -0.66025E-07  3857   0.466E-04    0.383E-04
RMM:  11    -0.187886573413E+04   -0.54220E-05   -0.52584E-07  3753   0.420E-04    0.263E-04
RMM:  12    -0.187886573670E+04   -0.25759E-05   -0.20692E-07  3102   0.315E-04    0.131E-04
RMM:  13    -0.187886573775E+04   -0.10436E-05   -0.74583E-08  2610   0.255E-04    0.907E-05
RMM:  14    -0.187886573839E+04   -0.64641E-06   -0.33596E-08  2316   0.231E-04
  13 F= -.19032174E+04 E0= -.19032174E+04  d E =-.343006E-11
       N       E                     dE             d eps       ncg     rms          rms(c)
DAV:   1    -0.187886569572E+04    0.42022E-04   -0.89796E-01  8224   0.646E-01    0.201E-01
RMM:   2    -0.187886585109E+04   -0.15537E-03   -0.54971E-03  7240   0.495E-02    0.122E-01
RMM:   3    -0.187886577156E+04    0.79533E-04   -0.55436E-04  6919   0.117E-02    0.390E-02
RMM:   4    -0.187886577941E+04   -0.78515E-05   -0.78509E-05  6343   0.482E-03    0.154E-02
RMM:   5    -0.187886577672E+04    0.26889E-05   -0.86109E-06  5158   0.180E-03    0.847E-03
RMM:   6    -0.187886577738E+04   -0.65638E-06   -0.70955E-06  4819   0.136E-03
  14 F= -.19032182E+04 E0= -.19032182E+04  d E =-.163467E-11
       N       E                     dE             d eps       ncg     rms          rms(c)
DAV:   1    -0.187886815985E+04   -0.23831E-02   -0.20578E+00  8032   0.929E-01    0.337E-01
RMM:   2    -0.187886776867E+04    0.39118E-03   -0.15646E-02  7396   0.805E-02    0.206E-01
RMM:   3    -0.187886738136E+04    0.38731E-03   -0.23171E-03  7174   0.230E-02    0.663E-02
RMM:   4    -0.187886739151E+04   -0.10145E-04   -0.24960E-04  6666   0.867E-03    0.375E-02
RMM:   5    -0.187886738088E+04    0.10628E-04   -0.40128E-05  6114   0.360E-03    0.140E-02
RMM:   6    -0.187886738154E+04   -0.66486E-06   -0.13685E-05  5207   0.191E-03    0.561E-03
RMM:   7    -0.187886738197E+04   -0.42793E-06   -0.18978E-06  3956   0.802E-04
  15 F= -.19032182E+04 E0= -.19032182E+04  d E =-.112884E-10
       N       E                     dE             d eps       ncg     rms          rms(c)
DAV:   1    -0.187886499955E+04    0.23820E-02   -0.10663E+00  8256   0.676E-01    0.233E-01
RMM:   2    -0.187886499154E+04    0.80033E-05   -0.86206E-03  7320   0.594E-02    0.131E-01
RMM:   3    -0.187886481450E+04    0.17704E-03   -0.15417E-03  7077   0.181E-02    0.362E-02
RMM:   4    -0.187886481267E+04    0.18354E-05   -0.78617E-05  6136   0.494E-03    0.183E-02
RMM:   5    -0.187886481009E+04    0.25763E-05   -0.29395E-05  5751   0.270E-03    0.108E-02
RMM:   6    -0.187886481071E+04   -0.61987E-06   -0.69565E-06  4784   0.144E-03
  16 F= -.19032173E+04 E0= -.19032173E+04  d E =-.414163E-11
       N       E                     dE             d eps       ncg     rms          rms(c)
DAV:   1    -0.187886686065E+04   -0.20506E-02   -0.21552E+00  8000   0.987E-01    0.299E-01
RMM:   2    -0.187886679410E+04    0.66550E-04   -0.12576E-02  7349   0.756E-02    0.180E-01
RMM:   3    -0.187886647149E+04    0.32260E-03   -0.22027E-03  7205   0.223E-02    0.527E-02
RMM:   4    -0.187886647997E+04   -0.84801E-05   -0.22031E-04  6595   0.827E-03    0.300E-02
RMM:   5    -0.187886646699E+04    0.12980E-04   -0.31093E-05  5999   0.325E-03    0.120E-02
RMM:   6    -0.187886646685E+04    0.13842E-06   -0.19674E-05  5486   0.210E-03    0.462E-03
RMM:   7    -0.187886646772E+04   -0.86166E-06   -0.10783E-06  3849   0.703E-04
  17 F= -.19032173E+04 E0= -.19032173E+04  d E =-.424501E-11
       N       E                     dE             d eps       ncg     rms          rms(c)
DAV:   1    -0.187886883020E+04   -0.23633E-02   -0.10676E+00  8032   0.676E-01    0.230E-01
RMM:   2    -0.187886823746E+04    0.59274E-03   -0.72073E-03  7338   0.528E-02    0.139E-01
RMM:   3    -0.187886807771E+04    0.15975E-03   -0.80584E-04  7046   0.141E-02    0.614E-02
RMM:   4    -0.187886807096E+04    0.67526E-05   -0.23298E-04  6704   0.821E-03    0.352E-02
RMM:   5    -0.187886806269E+04    0.82704E-05   -0.31245E-05  6103   0.344E-03    0.973E-03
RMM:   6    -0.187886806274E+04   -0.56330E-07   -0.46092E-06  4689   0.125E-03
  18 F= -.19032192E+04 E0= -.19032192E+04  d E =-.964376E-11
       N       E                     dE             d eps       ncg     rms          rms(c)
DAV:   1    -0.187886900768E+04   -0.94499E-03   -0.21480E+00  8000   0.926E-01    0.342E-01
RMM:   2    -0.187886725318E+04    0.17545E-02   -0.14066E-02  7481   0.749E-02    0.198E-01
RMM:   3    -0.187886688795E+04    0.36522E-03   -0.17905E-03  7310   0.204E-02    0.818E-02
RMM:   4    -0.187886687314E+04    0.14810E-04   -0.39991E-04  6963   0.107E-02    0.461E-02
RMM:   5    -0.187886686029E+04    0.12853E-04   -0.62046E-05  6420   0.474E-03    0.137E-02
RMM:   6    -0.187886685984E+04    0.45050E-06   -0.72771E-06  5115   0.164E-03
  19 F= -.19032190E+04 E0= -.19032190E+04  d E =-.181359E-11
       N       E                     dE             d eps       ncg     rms          rms(c)
DAV:   1    -0.187886570350E+04    0.11568E-02   -0.10783E+00  8064   0.674E-01    0.220E-01
RMM:   2    -0.187886559203E+04    0.11147E-03   -0.86662E-03  7317   0.553E-02    0.140E-01
RMM:   3    -0.187886537358E+04    0.21845E-03   -0.85057E-04  6969   0.139E-02    0.571E-02
RMM:   4    -0.187886537232E+04    0.12585E-05   -0.24087E-04  6706   0.762E-03    0.264E-02
RMM:   5    -0.187886536884E+04    0.34839E-05   -0.24562E-05  5918   0.301E-03    0.981E-03
RMM:   6    -0.187886536967E+04   -0.83598E-06   -0.28767E-06  4567   0.109E-03
  20 F= -.19032173E+04 E0= -.19032173E+04  d E =-.472325E-11
       N       E                     dE             d eps       ncg     rms          rms(c)
DAV:   1    -0.187886675746E+04   -0.13886E-02   -0.21737E+00  8000   0.888E-01    0.313E-01
RMM:   2    -0.187886596784E+04    0.78962E-03   -0.93682E-03  7139   0.611E-02    0.185E-01
RMM:   3    -0.187886557400E+04    0.39384E-03   -0.33525E-03  7060   0.235E-02    0.274E-02
RMM:   4    -0.187886556584E+04    0.81628E-05   -0.94929E-05  6063   0.540E-03    0.182E-02
RMM:   5    -0.187886556083E+04    0.50076E-05   -0.17685E-05  5408   0.221E-03    0.111E-02
RMM:   6    -0.187886556109E+04   -0.26586E-06   -0.89887E-06  4788   0.148E-03
  21 F= -.19032169E+04 E0= -.19032169E+04  d E =-.384205E-11
       N       E                     dE             d eps       ncg     rms          rms(c)
DAV:   1    -0.187886663000E+04   -0.10692E-02   -0.10681E+00  8096   0.654E-01    0.228E-01
RMM:   2    -0.187886630173E+04    0.32827E-03   -0.61320E-03  7079   0.487E-02    0.127E-01
RMM:   3    -0.187886613067E+04    0.17106E-03   -0.12436E-03  6716   0.149E-02    0.337E-02
RMM:   4    -0.187886614078E+04   -0.10112E-04   -0.94742E-05  5985   0.463E-03    0.151E-02
RMM:   5    -0.187886614128E+04   -0.49850E-06   -0.90376E-06  5003   0.174E-03
  22 F= -.19032179E+04 E0= -.19032179E+04  d E =-.442925E-11
       N       E                     dE             d eps       ncg     rms          rms(c)
DAV:   1    -0.187886753567E+04   -0.13949E-02   -0.21133E+00  8064   0.917E-01    0.319E-01
RMM:   2    -0.187886679027E+04    0.74540E-03   -0.11586E-02  7161   0.693E-02    0.176E-01
RMM:   3    -0.187886642860E+04    0.36167E-03   -0.24642E-03  7019   0.216E-02    0.413E-02
RMM:   4    -0.187886643545E+04   -0.68493E-05   -0.14673E-04  6251   0.611E-03    0.194E-02
RMM:   5    -0.187886643514E+04    0.30345E-06   -0.18184E-05  5452   0.239E-03    0.106E-02
RMM:   6    -0.187886643692E+04   -0.17749E-05   -0.36243E-06  4326   0.113E-03    0.487E-03
RMM:   7    -0.187886643926E+04   -0.23367E-05   -0.15497E-06  4071   0.770E-04    0.111E-03
RMM:   8    -0.187886644074E+04   -0.14871E-05   -0.23566E-07  3163   0.378E-04    0.564E-04
RMM:   9    -0.187886644201E+04   -0.12653E-05   -0.10535E-07  2603   0.286E-04    0.269E-04
RMM:  10    -0.187886644299E+04   -0.98647E-06   -0.66578E-08  2557   0.259E-04
  23 F= -.19032179E+04 E0= -.19032179E+04  d E =-.400338E-11
       N       E                     dE             d eps       ncg     rms          rms(c)
DAV:   1    -0.187886660041E+04   -0.15840E-03   -0.10547E+00  8096   0.646E-01    0.227E-01
RMM:   2    -0.187886629348E+04    0.30693E-03   -0.61233E-03  7070   0.513E-02    0.127E-01
RMM:   3    -0.187886607366E+04    0.21983E-03   -0.12228E-03  6758   0.153E-02    0.312E-02
RMM:   4    -0.187886607980E+04   -0.61450E-05   -0.85261E-05  5884   0.420E-03    0.127E-02
RMM:   5    -0.187886608081E+04   -0.10058E-05   -0.87192E-06  4897   0.160E-03    0.676E-03
RMM:   6    -0.187886608203E+04   -0.12266E-05   -0.16163E-06  4056   0.833E-04    0.348E-03
RMM:   7    -0.187886608356E+04   -0.15308E-05   -0.69753E-07  3691   0.594E-04    0.932E-04
RMM:   8    -0.187886608479E+04   -0.12303E-05   -0.14062E-07  3078   0.342E-04    0.578E-04
RMM:   9    -0.187886608624E+04   -0.14414E-05   -0.92485E-08  2636   0.282E-04    0.279E-04
RMM:  10    -0.187886608745E+04   -0.12164E-05   -0.79370E-08  2768   0.266E-04    0.166E-04
RMM:  11    -0.187886608855E+04   -0.10926E-05   -0.76520E-08  2698   0.256E-04    0.876E-05
RMM:  12    -0.187886608915E+04   -0.60798E-06   -0.36722E-08  2274   0.231E-04
  24 F= -.19032172E+04 E0= -.19032172E+04  d E =-.392115E-11
       N       E                     dE             d eps       ncg     rms          rms(c)
DAV:   1    -0.187886617090E+04   -0.82354E-04   -0.21787E+00  8000   0.912E-01    0.310E-01
RMM:   2    -0.187886548354E+04    0.68736E-03   -0.10316E-02  7162   0.653E-02    0.186E-01
RMM:   3    -0.187886505258E+04    0.43097E-03   -0.37475E-03  7125   0.249E-02    0.251E-02
RMM:   4    -0.187886503844E+04    0.14138E-04   -0.85833E-05  6033   0.493E-03    0.171E-02
RMM:   5    -0.187886503626E+04    0.21731E-05   -0.30666E-05  5763   0.258E-03    0.928E-03
RMM:   6    -0.187886503935E+04   -0.30900E-05   -0.65031E-06  4902   0.146E-03    0.387E-03
RMM:   7    -0.187886504197E+04   -0.26142E-05   -0.20837E-06  3890   0.770E-04    0.152E-03
RMM:   8    -0.187886504538E+04   -0.34142E-05   -0.64264E-07  3744   0.505E-04    0.742E-04
RMM:   9    -0.187886504771E+04   -0.23300E-05   -0.15545E-07  3126   0.320E-04    0.447E-04
RMM:  10    -0.187886505068E+04   -0.29696E-05   -0.24782E-07  3583   0.349E-04    0.220E-04
RMM:  11    -0.187886505229E+04   -0.16031E-05   -0.11411E-07  2769   0.278E-04    0.161E-04
RMM:  12    -0.187886505363E+04   -0.13426E-05   -0.13137E-07  3262   0.288E-04    0.808E-05
RMM:  13    -0.187886505394E+04   -0.30771E-06   -0.19800E-08  2062   0.207E-04
  25 F= -.19032172E+04 E0= -.19032172E+04  d E =-.465458E-11
       N       E                     dE             d eps       ncg     rms          rms(c)
DAV:   1    -0.187886666995E+04   -0.16163E-02   -0.10777E+00  8064   0.691E-01    0.213E-01
RMM:   2    -0.187886672327E+04   -0.53316E-04   -0.78575E-03  7148   0.549E-02    0.133E-01
RMM:   3    -0.187886648373E+04    0.23954E-03   -0.15081E-03  6960   0.172E-02    0.248E-02
RMM:   4    -0.187886649231E+04   -0.85773E-05   -0.66567E-05  5948   0.422E-03    0.132E-02
RMM:   5    -0.187886649267E+04   -0.36626E-06   -0.10078E-05  5069   0.174E-03    0.823E-03
RMM:   6    -0.187886649416E+04   -0.14873E-05   -0.33968E-06  4404   0.109E-03    0.258E-03
RMM:   7    -0.187886649575E+04   -0.15901E-05   -0.79826E-07  3660   0.571E-04    0.967E-04
RMM:   8    -0.187886649705E+04   -0.12952E-05   -0.17945E-07  3163   0.347E-04    0.528E-04
RMM:   9    -0.187886649873E+04   -0.16792E-05   -0.15828E-07  3194   0.313E-04    0.276E-04
RMM:  10    -0.187886649953E+04   -0.80725E-06   -0.58802E-08  2547   0.244E-04
  26 F= -.19032179E+04 E0= -.19032179E+04  d E =-.637996E-11
       N       E                     dE             d eps       ncg     rms          rms(c)
DAV:   1    -0.187886679939E+04   -0.30067E-03   -0.21413E+00  8000   0.987E-01    0.310E-01
RMM:   2    -0.187886631069E+04    0.48871E-03   -0.10931E-02  7210   0.690E-02    0.180E-01
RMM:   3    -0.187886589289E+04    0.41780E-03   -0.29484E-03  7185   0.240E-02    0.305E-02
RMM:   4    -0.187886589836E+04   -0.54707E-05   -0.10613E-04  6271   0.539E-03    0.170E-02
RMM:   5    -0.187886589640E+04    0.19563E-05   -0.26727E-05  5753   0.261E-03    0.104E-02
RMM:   6    -0.187886589807E+04   -0.16639E-05   -0.41843E-06  4729   0.125E-03    0.423E-03
RMM:   7    -0.187886590172E+04   -0.36556E-05   -0.19477E-06  4072   0.781E-04    0.150E-03
RMM:   8    -0.187886590496E+04   -0.32439E-05   -0.63418E-07  3697   0.503E-04    0.918E-04
RMM:   9    -0.187886590936E+04   -0.43962E-05   -0.33945E-07  3557   0.398E-04    0.423E-04
RMM:  10    -0.187886591163E+04   -0.22670E-05   -0.15991E-07  2995   0.302E-04    0.257E-04
RMM:  11    -0.187886591469E+04   -0.30628E-05   -0.25622E-07  3501   0.335E-04    0.193E-04
RMM:  12    -0.187886591582E+04   -0.11314E-05   -0.62703E-08  2347   0.242E-04    0.104E-04
RMM:  13    -0.187886591667E+04   -0.84413E-06   -0.57317E-08  2518   0.243E-04
  27 F= -.19032178E+04 E0= -.19032178E+04  d E =-.304926E-11
       N       E                     dE             d eps       ncg     rms          rms(c)
DAV:   1    -0.187886679028E+04   -0.87446E-03   -0.10523E+00  8064   0.690E-01    0.228E-01
RMM:   2    -0.187886654857E+04    0.24171E-03   -0.65397E-03  7131   0.531E-02    0.124E-01
RMM:   3    -0.187886637317E+04    0.17540E-03   -0.11964E-03  6939   0.161E-02    0.332E-02
RMM:   4    -0.187886637520E+04   -0.20305E-05   -0.78721E-05  6164   0.474E-03    0.133E-02
RMM:   5    -0.187886637552E+04   -0.32081E-06   -0.11208E-05  5153   0.184E-03    0.864E-03
RMM:   6    -0.187886637622E+04   -0.69068E-06   -0.17772E-06  4043   0.867E-04
  28 F= -.19032175E+04 E0= -.19032175E+04  d E =-.397969E-11
       N       E                     dE             d eps       ncg     rms          rms(c)
DAV:   1    -0.187886625942E+04    0.11611E-03   -0.21473E+00  8032   0.985E-01    0.317E-01
RMM:   2    -0.187886562749E+04    0.63193E-03   -0.11940E-02  7203   0.704E-02    0.181E-01
RMM:   3    -0.187886526607E+04    0.36142E-03   -0.28732E-03  7110   0.237E-02    0.402E-02
RMM:   4    -0.187886526587E+04    0.19453E-06   -0.13604E-04  6375   0.639E-03    0.203E-02
RMM:   5    -0.187886526413E+04    0.17419E-05   -0.23152E-05  5655   0.266E-03    0.117E-02
RMM:   6    -0.187886526460E+04   -0.46603E-06   -0.35482E-06  4447   0.114E-03
  29 F= -.19032174E+04 E0= -.19032174E+04  d E =-.479526E-11
       N       E                     dE             d eps       ncg     rms          rms(c)
DAV:   1    -0.187886622483E+04   -0.96070E-03   -0.10866E+00  8064   0.680E-01    0.221E-01
RMM:   2    -0.187886590826E+04    0.31657E-03   -0.55202E-03  7155   0.498E-02    0.128E-01
RMM:   3    -0.187886573570E+04    0.17256E-03   -0.15867E-03  7052   0.176E-02    0.252E-02
RMM:   4    -0.187886573690E+04   -0.12022E-05   -0.66231E-05  6273   0.470E-03    0.153E-02
RMM:   5    -0.187886573467E+04    0.22301E-05   -0.11209E-05  5362   0.192E-03    0.857E-03
RMM:   6    -0.187886573504E+04   -0.36384E-06   -0.32345E-06  4492   0.103E-03
  30 F= -.19032172E+04 E0= -.19032172E+04  d E =-.365522E-11
       N       E                     dE             d eps       ncg     rms          rms(c)
DAV:   1    -0.187886626927E+04   -0.53460E-03   -0.21945E+00  8000   0.963E-01    0.306E-01
RMM:   2    -0.187886563361E+04    0.63566E-03   -0.93229E-03  7229   0.650E-02    0.182E-01
RMM:   3    -0.187886526203E+04    0.37158E-03   -0.35935E-03  7199   0.260E-02    0.256E-02
RMM:   4    -0.187886524582E+04    0.16214E-04   -0.80785E-05  6394   0.539E-03    0.177E-02
RMM:   5    -0.187886524007E+04    0.57467E-05   -0.16191E-05  5618   0.216E-03    0.108E-02
RMM:   6    -0.187886524044E+04   -0.37224E-06   -0.19319E-05  5947   0.216E-03    0.354E-03
RMM:   7    -0.187886524071E+04   -0.27141E-06   -0.15293E-06  4018   0.740E-04
  31 F= -.19032171E+04 E0= -.19032171E+04  d E =-.513039E-11
       N       E                     dE             d eps       ncg     rms          rms(c)
DAV:   1    -0.187887141932E+04   -0.61789E-02   -0.62518E-01  8064   0.515E-01    0.176E-01
RMM:   2    -0.187887133120E+04    0.88110E-04   -0.34559E-03  7080   0.375E-02    0.107E-01
RMM:   3    -0.187887123918E+04    0.92024E-04   -0.97608E-04  6906   0.140E-02    0.149E-02
RMM:   4    -0.187887123950E+04   -0.32457E-06   -0.26985E-05  5727   0.292E-03    0.950E-03
RMM:   5    -0.187887123873E+04    0.77780E-06   -0.10913E-05  5288   0.165E-03    0.366E-03
RMM:   6    -0.187887123951E+04   -0.78759E-06   -0.96586E-07  3875   0.663E-04
  32 F= -.19032225E+04 E0= -.19032225E+04  d E =-.441400E-11
       N       E                     dE             d eps       ncg     rms          rms(c)
DAV:   1    -0.187887051834E+04    0.72039E-03   -0.30501E-01  8416   0.281E-01    0.183E-01
RMM:   2    -0.187887043142E+04    0.86914E-04   -0.14100E-03  6433   0.196E-02    0.107E-01
RMM:   3    -0.187887043772E+04   -0.62935E-05   -0.25129E-04  6500   0.773E-03    0.248E-02
RMM:   4    -0.187887044227E+04   -0.45547E-05   -0.23285E-05  5607   0.250E-03    0.856E-03
RMM:   5    -0.187887044295E+04   -0.67518E-06   -0.35663E-06  4332   0.122E-03
  33 F= -.19032225E+04 E0= -.19032225E+04  d E =-.438006E-11
       N       E                     dE             d eps       ncg     rms          rms(c)
DAV:   1    -0.187886921290E+04    0.12294E-02   -0.15618E-01  8800   0.206E-01    0.144E-01
RMM:   2    -0.187886907976E+04    0.13314E-03   -0.11424E-03  6667   0.170E-02    0.845E-02
RMM:   3    -0.187886906607E+04    0.13693E-04   -0.88023E-05  6326   0.493E-03    0.415E-02
RMM:   4    -0.187886907474E+04   -0.86759E-05   -0.45445E-05  5991   0.381E-03    0.124E-02
RMM:   5    -0.187886907408E+04    0.66303E-06   -0.59699E-06  4720   0.158E-03
  34 F= -.19032206E+04 E0= -.19032206E+04  d E =-.425275E-11
       N       E                     dE             d eps       ncg     rms          rms(c)
DAV:   1    -0.187887001652E+04   -0.94178E-03   -0.32489E-01  8736   0.296E-01    0.274E-01
RMM:   2    -0.187886905848E+04    0.95803E-03   -0.44400E-03  7161   0.324E-02    0.154E-01
RMM:   3    -0.187886891481E+04    0.14367E-03   -0.26903E-04  6911   0.892E-03    0.795E-02
RMM:   4    -0.187886891045E+04    0.43690E-05   -0.18189E-04  6503   0.751E-03    0.282E-02
RMM:   5    -0.187886890539E+04    0.50567E-05   -0.29373E-05  5902   0.339E-03    0.123E-02
RMM:   6    -0.187886890585E+04   -0.46437E-06   -0.38590E-06  4790   0.131E-03
  35 F= -.19032207E+04 E0= -.19032207E+04  d E =-.445268E-11
       N       E                     dE             d eps       ncg     rms          rms(c)
DAV:   1    -0.187886938862E+04   -0.48323E-03   -0.15155E-01  8576   0.202E-01    0.117E-01
RMM:   2    -0.187886938861E+04    0.12573E-07   -0.64475E-04  6457   0.135E-02    0.701E-02
RMM:   3    -0.187886940246E+04   -0.13852E-04   -0.98519E-05  6133   0.497E-03    0.156E-02
RMM:   4    -0.187886940374E+04   -0.12808E-05   -0.81516E-06  4832   0.156E-03    0.407E-03
RMM:   5    -0.187886940415E+04   -0.41393E-06   -0.11450E-06  3684   0.697E-04
  36 F= -.19032214E+04 E0= -.19032214E+04  d E =-.434693E-11
       N       E                     dE             d eps       ncg     rms          rms(c)
DAV:   1    -0.187887071264E+04   -0.13089E-02   -0.32072E-01  8640   0.289E-01    0.243E-01
RMM:   2    -0.187887012935E+04    0.58329E-03   -0.31457E-03  6936   0.272E-02    0.137E-01
RMM:   3    -0.187887003877E+04    0.90581E-04   -0.26712E-04  6850   0.879E-03    0.690E-02
RMM:   4    -0.187887004146E+04   -0.26904E-05   -0.13691E-04  6482   0.654E-03    0.237E-02
RMM:   5    -0.187887003967E+04    0.17886E-05   -0.21035E-05  5761   0.298E-03    0.117E-02
RMM:   6    -0.187887004017E+04   -0.49575E-06   -0.34798E-06  4821   0.125E-03
  37 F= -.19032214E+04 E0= -.19032214E+04  d E =-.435788E-11
       N       E                     dE             d eps       ncg     rms          rms(c)
DAV:   1    -0.187887099309E+04   -0.95342E-03   -0.15832E-01  8640   0.210E-01    0.176E-01
RMM:   2    -0.187887060565E+04    0.38743E-03   -0.17828E-03  6810   0.204E-02    0.973E-02
RMM:   3    -0.187887056378E+04    0.41869E-04   -0.11586E-04  6598   0.593E-03    0.513E-02
RMM:   4    -0.187887057071E+04   -0.69225E-05   -0.74652E-05  6360   0.490E-03    0.194E-02
RMM:   5    -0.187887056924E+04    0.14710E-05   -0.13735E-05  5474   0.237E-03    0.853E-03
RMM:   6    -0.187887056946E+04   -0.22436E-06   -0.18410E-06  4513   0.998E-04
  38 F= -.19032219E+04 E0= -.19032219E+04  d E =-.441431E-11
       N       E                     dE             d eps       ncg     rms          rms(c)
DAV:   1    -0.187887025299E+04    0.31625E-03   -0.31250E-01  8320   0.266E-01    0.219E-01
RMM:   2    -0.187886988088E+04    0.37211E-03   -0.23098E-03  6860   0.235E-02    0.124E-01
RMM:   3    -0.187886982448E+04    0.56400E-04   -0.23559E-04  6733   0.793E-03    0.573E-02
RMM:   4    -0.187886983206E+04   -0.75818E-05   -0.10004E-04  6408   0.545E-03    0.186E-02
RMM:   5    -0.187886983051E+04    0.15523E-05   -0.13226E-05  5453   0.236E-03    0.894E-03
RMM:   6    -0.187886983095E+04   -0.44450E-06   -0.32204E-06  4706   0.115E-03
  39 F= -.19032218E+04 E0= -.19032218E+04  d E =-.426116E-11
       N       E                     dE             d eps       ncg     rms          rms(c)
DAV:   1    -0.187886866886E+04    0.11617E-02   -0.16633E-01  8864   0.197E-01    0.221E-01
RMM:   2    -0.187886799186E+04    0.67700E-03   -0.32146E-03  7020   0.263E-02    0.122E-01
RMM:   3    -0.187886788699E+04    0.10487E-03   -0.21348E-04  6800   0.781E-03    0.637E-02
RMM:   4    -0.187886787668E+04    0.10308E-04   -0.12123E-04  6430   0.618E-03    0.247E-02
RMM:   5    -0.187886787268E+04    0.40093E-05   -0.21873E-05  5759   0.297E-03    0.106E-02
RMM:   6    -0.187886787231E+04    0.36250E-06   -0.26960E-06  4628   0.114E-03
  40 F= -.19032202E+04 E0= -.19032202E+04  d E =-.436787E-11
       N       E                     dE             d eps       ncg     rms          rms(c)
DAV:   1    -0.187887063320E+04   -0.27605E-02   -0.32704E-01  8832   0.276E-01    0.291E-01
RMM:   2    -0.187886948836E+04    0.11448E-02   -0.50900E-03  7241   0.335E-02    0.163E-01
RMM:   3    -0.187886930855E+04    0.17980E-03   -0.36777E-04  7028   0.104E-02    0.857E-02
RMM:   4    -0.187886928583E+04    0.22724E-04   -0.21047E-04  6606   0.826E-03    0.329E-02
RMM:   5    -0.187886927871E+04    0.71161E-05   -0.38394E-05  6053   0.394E-03    0.148E-02
RMM:   6    -0.187886927753E+04    0.11841E-05   -0.45392E-06  4999   0.147E-03    0.467E-03
RMM:   7    -0.187886927821E+04   -0.68184E-06   -0.11416E-06  3835   0.688E-04
  41 F= -.19032202E+04 E0= -.19032202E+04  d E =-.427748E-11
       N       E                     dE             d eps       ncg     rms          rms(c)
DAV:   1    -0.187887110487E+04   -0.18273E-02   -0.16154E-01  8800   0.189E-01    0.189E-01
RMM:   2    -0.187887071760E+04    0.38727E-03   -0.20556E-03  6847   0.209E-02    0.105E-01
RMM:   3    -0.187887065756E+04    0.60046E-04   -0.16076E-04  6627   0.657E-03    0.527E-02
RMM:   4    -0.187887065723E+04    0.33122E-06   -0.83397E-05  6371   0.506E-03    0.186E-02
RMM:   5    -0.187887065513E+04    0.20932E-05   -0.13252E-05  5440   0.235E-03    0.885E-03
RMM:   6    -0.187887065490E+04    0.23532E-06   -0.19280E-06  4471   0.971E-04
  42 F= -.19032226E+04 E0= -.19032226E+04  d E =-.442508E-11
       N       E                     dE             d eps       ncg     rms          rms(c)
DAV:   1    -0.187887107563E+04   -0.42049E-03   -0.30690E-01  8064   0.259E-01    0.171E-01
RMM:   2    -0.187887108333E+04   -0.77072E-05   -0.13065E-03  6738   0.188E-02    0.101E-01
RMM:   3    -0.187887110000E+04   -0.16662E-04   -0.24394E-04  6665   0.812E-03    0.162E-02
RMM:   4    -0.187887110020E+04   -0.20697E-06   -0.16338E-05  5715   0.243E-03    0.718E-03
RMM:   5    -0.187887109977E+04    0.43336E-06   -0.19342E-06  4210   0.882E-04
  43 F= -.19032225E+04 E0= -.19032225E+04  d E =-.437463E-11
       N       E                     dE             d eps       ncg     rms          rms(c)
DAV:   1    -0.187887062646E+04    0.47375E-03   -0.15501E-01  8512   0.225E-01    0.124E-01
RMM:   2    -0.187887064310E+04   -0.16641E-04   -0.90669E-04  6783   0.169E-02    0.734E-02
RMM:   3    -0.187887066112E+04   -0.18023E-04   -0.15845E-04  6432   0.651E-03    0.802E-03
RMM:   4    -0.187887066107E+04    0.55355E-07   -0.58670E-06  4709   0.143E-03
  44 F= -.19032225E+04 E0= -.19032225E+04  d E =-.428429E-11
       N       E                     dE             d eps       ncg     rms          rms(c)
DAV:   1    -0.187887100325E+04   -0.34213E-03   -0.31519E-01  8160   0.327E-01    0.182E-01
RMM:   2    -0.187887093244E+04    0.70812E-04   -0.12833E-03  6744   0.222E-02    0.107E-01
RMM:   3    -0.187887095618E+04   -0.23746E-04   -0.32366E-04  6533   0.923E-03    0.178E-02
RMM:   4    -0.187887095335E+04    0.28354E-05   -0.18569E-05  5553   0.269E-03    0.849E-03
RMM:   5    -0.187887095224E+04    0.11048E-05   -0.36653E-06  4260   0.111E-03    0.329E-03
RMM:   6    -0.187887095271E+04   -0.46582E-06   -0.10799E-06  3710   0.670E-04
  45 F= -.19032224E+04 E0= -.19032224E+04  d E =-.441261E-11
       N       E                     dE             d eps       ncg     rms          rms(c)
DAV:   1    -0.187886945524E+04    0.14970E-02   -0.16437E-01  8704   0.232E-01    0.152E-01
RMM:   2    -0.187886929744E+04    0.15780E-03   -0.99955E-04  6626   0.179E-02    0.850E-02
RMM:   3    -0.187886929273E+04    0.47112E-05   -0.20435E-04  6185   0.693E-03    0.216E-02
RMM:   4    -0.187886929414E+04   -0.14090E-05   -0.19163E-05  5420   0.257E-03    0.842E-03
RMM:   5    -0.187886929354E+04    0.59415E-06   -0.27081E-06  4206   0.107E-03
  46 F= -.19032207E+04 E0= -.19032207E+04  d E =-.391808E-11
       N       E                     dE             d eps       ncg     rms          rms(c)
DAV:   1    -0.187886974003E+04   -0.44589E-03   -0.33383E-01  8800   0.332E-01    0.267E-01
RMM:   2    -0.187886892594E+04    0.81409E-03   -0.35866E-03  7042   0.339E-02    0.141E-01
RMM:   3    -0.187886881971E+04    0.10623E-03   -0.71434E-04  6773   0.127E-02    0.475E-02
RMM:   4    -0.187886881245E+04    0.72601E-05   -0.88950E-05  6263   0.567E-03    0.215E-02
RMM:   5    -0.187886880767E+04    0.47831E-05   -0.15532E-05  5572   0.246E-03    0.675E-03
RMM:   6    -0.187886880785E+04   -0.18383E-06   -0.17625E-06  4036   0.894E-04
  47 F= -.19032207E+04 E0= -.19032207E+04  d E =-.494354E-11
       N       E                     dE             d eps       ncg     rms          rms(c)
DAV:   1    -0.187886992432E+04   -0.11167E-02   -0.15883E-01  8480   0.229E-01    0.123E-01
RMM:   2    -0.187886991292E+04    0.11398E-04   -0.71998E-04  6607   0.152E-02    0.730E-02
RMM:   3    -0.187886991849E+04   -0.55698E-05   -0.17543E-04  6355   0.677E-03    0.992E-03
RMM:   4    -0.187886991749E+04    0.10050E-05   -0.68004E-06  4848   0.164E-03    0.509E-03
RMM:   5    -0.187886991716E+04    0.32247E-06   -0.19117E-06  3856   0.809E-04
  48 F= -.19032211E+04 E0= -.19032211E+04  d E =-.421436E-11
       N       E                     dE             d eps       ncg     rms          rms(c)
DAV:   1    -0.187886966602E+04    0.25147E-03   -0.33063E-01  8640   0.335E-01    0.257E-01
RMM:   2    -0.187886898973E+04    0.67629E-03   -0.31324E-03  7085   0.316E-02    0.137E-01
RMM:   3    -0.187886889107E+04    0.98656E-04   -0.71123E-04  6802   0.125E-02    0.396E-02
RMM:   4    -0.187886888896E+04    0.21153E-05   -0.60244E-05  6189   0.442E-03    0.112E-02
RMM:   5    -0.187886888876E+04    0.19277E-06   -0.79071E-06  4967   0.171E-03
  49 F= -.19032210E+04 E0= -.19032210E+04  d E =-.465645E-11
       N       E                     dE             d eps       ncg     rms          rms(c)
DAV:   1    -0.187887056759E+04   -0.16786E-02   -0.16249E-01  8704   0.248E-01    0.162E-01
RMM:   2    -0.187887039503E+04    0.17256E-03   -0.14468E-03  7048   0.229E-02    0.900E-02
RMM:   3    -0.187887036845E+04    0.26575E-04   -0.27060E-04  6578   0.817E-03    0.235E-02
RMM:   4    -0.187887036711E+04    0.13432E-05   -0.19786E-05  5410   0.250E-03    0.555E-03
RMM:   5    -0.187887036725E+04   -0.13837E-06   -0.23291E-06  4120   0.937E-04
  50 F= -.19032221E+04 E0= -.19032221E+04  d E =-.482810E-11
       N       E                     dE             d eps       ncg     rms          rms(c)
DAV:   1    -0.187887069238E+04   -0.32527E-03   -0.32008E-01  8448   0.336E-01    0.194E-01
RMM:   2    -0.187887056290E+04    0.12948E-03   -0.17750E-03  7107   0.260E-02    0.112E-01
RMM:   3    -0.187887053481E+04    0.28086E-04   -0.47610E-04  6955   0.110E-02    0.234E-02
RMM:   4    -0.187887053193E+04    0.28844E-05   -0.28634E-05  6006   0.332E-03    0.122E-02
RMM:   5    -0.187887053015E+04    0.17822E-05   -0.86404E-06  5020   0.168E-03    0.475E-03
RMM:   6    -0.187887053053E+04   -0.38602E-06   -0.13825E-06  4048   0.802E-04
  51 F= -.19032220E+04 E0= -.19032220E+04  d E =-.394033E-11
       N       E                     dE             d eps       ncg     rms          rms(c)
DAV:   1    -0.187886840872E+04    0.21214E-02   -0.16213E-01  8608   0.237E-01    0.134E-01
RMM:   2    -0.187886834413E+04    0.64588E-04   -0.97276E-04  6920   0.184E-02    0.768E-02
RMM:   3    -0.187886833803E+04    0.61066E-05   -0.20348E-04  6560   0.730E-03    0.204E-02
RMM:   4    -0.187886833708E+04    0.95092E-06   -0.19479E-05  5687   0.278E-03    0.946E-03
RMM:   5    -0.187886833601E+04    0.10656E-05   -0.41336E-06  4577   0.126E-03    0.378E-03
RMM:   6    -0.187886833604E+04   -0.34706E-07   -0.50581E-07  3626   0.577E-04
  52 F= -.19032204E+04 E0= -.19032204E+04  d E =-.438760E-11
       N       E                     dE             d eps       ncg     rms          rms(c)
DAV:   1    -0.187886998490E+04   -0.16489E-02   -0.34511E-01  8832   0.356E-01    0.280E-01
RMM:   2    -0.187886913473E+04    0.85017E-03   -0.44314E-03  7198   0.390E-02    0.146E-01
RMM:   3    -0.187886901811E+04    0.11662E-03   -0.94068E-04  7011   0.146E-02    0.536E-02
RMM:   4    -0.187886900168E+04    0.16428E-04   -0.11466E-04  6466   0.663E-03    0.265E-02
RMM:   5    -0.187886899365E+04    0.80258E-05   -0.27653E-05  6072   0.319E-03    0.912E-03
RMM:   6    -0.187886899325E+04    0.40140E-06   -0.20455E-06  4327   0.101E-03
  53 F= -.19032202E+04 E0= -.19032202E+04  d E =-.443781E-11
       N       E                     dE             d eps       ncg     rms          rms(c)
DAV:   1    -0.187887037628E+04   -0.13826E-02   -0.16044E-01  8576   0.235E-01    0.133E-01
RMM:   2    -0.187887036124E+04    0.15043E-04   -0.87650E-04  6867   0.177E-02    0.777E-02
RMM:   3    -0.187887035672E+04    0.45169E-05   -0.16805E-04  6504   0.691E-03    0.128E-02
RMM:   4    -0.187887035622E+04    0.50184E-06   -0.98274E-06  5172   0.189E-03
  54 F= -.19032219E+04 E0= -.19032219E+04  d E =-.383038E-11
       N       E                     dE             d eps       ncg     rms          rms(c)
DAV:   1    -0.187887033897E+04    0.17753E-04   -0.32299E-01  8672   0.341E-01    0.213E-01
RMM:   2    -0.187887004521E+04    0.29376E-03   -0.24968E-03  7127   0.294E-02    0.119E-01
RMM:   3    -0.187887000566E+04    0.39553E-04   -0.56520E-04  6933   0.116E-02    0.390E-02
RMM:   4    -0.187886999996E+04    0.56961E-05   -0.66510E-05  6311   0.502E-03    0.188E-02
RMM:   5    -0.187886999579E+04    0.41727E-05   -0.15567E-05  5585   0.227E-03    0.601E-03
RMM:   6    -0.187886999581E+04   -0.24942E-07   -0.15418E-06  4055   0.879E-04
  55 F= -.19032218E+04 E0= -.19032218E+04  d E =-.497419E-11
       N       E                     dE             d eps       ncg     rms          rms(c)
DAV:   1    -0.187886830244E+04    0.16934E-02   -0.16645E-01  8992   0.262E-01    0.176E-01
RMM:   2    -0.187886804484E+04    0.25760E-03   -0.20823E-03  7003   0.275E-02    0.987E-02
RMM:   3    -0.187886799452E+04    0.50318E-04   -0.79078E-04  6708   0.120E-02    0.280E-02
RMM:   4    -0.187886797958E+04    0.14942E-04   -0.28697E-05  5645   0.324E-03    0.161E-02
RMM:   5    -0.187886797661E+04    0.29662E-05   -0.33788E-05  5504   0.262E-03    0.762E-03
RMM:   6    -0.187886797627E+04    0.34610E-06   -0.22196E-06  4110   0.994E-04
  56 F= -.19032202E+04 E0= -.19032202E+04  d E =-.417176E-11
       N       E                     dE             d eps       ncg     rms          rms(c)
DAV:   1    -0.187887004831E+04   -0.20717E-02   -0.34947E-01  8768   0.317E-01    0.296E-01
RMM:   2    -0.187886897899E+04    0.10693E-02   -0.48398E-03  6966   0.352E-02    0.157E-01
RMM:   3    -0.187886883319E+04    0.14580E-03   -0.21718E-03  6781   0.186E-02    0.467E-02
RMM:   4    -0.187886878904E+04    0.44153E-04   -0.73066E-05  5837   0.462E-03    0.223E-02
RMM:   5    -0.187886878872E+04    0.32200E-06   -0.10077E-04  5908   0.419E-03    0.116E-02
RMM:   6    -0.187886878575E+04    0.29640E-05   -0.35640E-06  4372   0.122E-03    0.542E-03
RMM:   7    -0.187886878700E+04   -0.12486E-05   -0.13563E-05  4377   0.146E-03    0.414E-03
RMM:   8    -0.187886878733E+04   -0.32593E-06   -0.14438E-06  3527   0.603E-04
  57 F= -.19032199E+04 E0= -.19032199E+04  d E =-.462301E-11
       N       E                     dE             d eps       ncg     rms          rms(c)
DAV:   1    -0.187887156493E+04   -0.27779E-02   -0.16965E-01  8576   0.215E-01    0.179E-01
RMM:   2    -0.187887124179E+04    0.32313E-03   -0.16194E-03  6518   0.206E-02    0.976E-02
RMM:   3    -0.187887120991E+04    0.31887E-04   -0.72356E-04  6204   0.109E-02    0.257E-02
RMM:   4    -0.187887119667E+04    0.13237E-04   -0.24533E-05  5168   0.266E-03    0.121E-02
RMM:   5    -0.187887119731E+04   -0.64356E-06   -0.32828E-05  5118   0.240E-03    0.642E-03
RMM:   6    -0.187887119674E+04    0.57636E-06   -0.99028E-07  3783   0.740E-04
  58 F= -.19032223E+04 E0= -.19032223E+04  d E =-.450083E-11
       N       E                     dE             d eps       ncg     rms          rms(c)
DAV:   1    -0.187887030709E+04    0.89023E-03   -0.32591E-01  8320   0.297E-01    0.172E-01
RMM:   2    -0.187887027415E+04    0.32936E-04   -0.12755E-03  6298   0.187E-02    0.103E-01
RMM:   3    -0.187887028827E+04   -0.14115E-04   -0.36173E-04  6186   0.853E-03    0.942E-03
RMM:   4    -0.187887028825E+04    0.19238E-07   -0.94848E-06  4743   0.170E-03
  59 F= -.19032225E+04 E0= -.19032225E+04  d E =-.439625E-11
       N       E                     dE             d eps       ncg     rms          rms(c)
DAV:   1    -0.187887069541E+04   -0.40714E-03   -0.16312E-01  8448   0.211E-01    0.140E-01
RMM:   2    -0.187887058045E+04    0.11496E-03   -0.95556E-04  6483   0.155E-02    0.791E-02
RMM:   3    -0.187887058457E+04   -0.41201E-05   -0.34483E-04  6176   0.780E-03    0.161E-02
RMM:   4    -0.187887058060E+04    0.39678E-05   -0.12211E-05  4787   0.184E-03    0.651E-03
RMM:   5    -0.187887058120E+04   -0.59963E-06   -0.10105E-05  4429   0.138E-03    0.324E-03
RMM:   6    -0.187887058117E+04    0.25015E-07   -0.34990E-07  3451   0.494E-04
  60 F= -.19032219E+04 E0= -.19032219E+04  d E =-.441642E-11
       N       E                     dE             d eps       ncg     rms          rms(c)
DAV:   1    -0.187887011314E+04    0.46806E-03   -0.32891E-01  8512   0.302E-01    0.215E-01
RMM:   2    -0.187886975309E+04    0.36005E-03   -0.20465E-03  6837   0.234E-02    0.120E-01
RMM:   3    -0.187886973022E+04    0.22876E-04   -0.88826E-04  6629   0.124E-02    0.290E-02
RMM:   4    -0.187886971513E+04    0.15084E-04   -0.37060E-05  5682   0.336E-03    0.128E-02
RMM:   5    -0.187886971611E+04   -0.97694E-06   -0.30013E-05  5394   0.247E-03    0.618E-03
RMM:   6    -0.187886971630E+04   -0.18702E-06   -0.10074E-06  3832   0.772E-04
  61 F= -.19032217E+04 E0= -.19032217E+04  d E =-.431902E-11
       N       E                     dE             d eps       ncg     rms          rms(c)
DAV:   1    -0.187887125681E+04   -0.15407E-02   -0.16279E-01  8704   0.227E-01    0.141E-01
RMM:   2    -0.187887119504E+04    0.61775E-04   -0.86132E-04  6500   0.155E-02    0.822E-02
RMM:   3    -0.187887120391E+04   -0.88694E-05   -0.24705E-04  6229   0.701E-03    0.150E-02
RMM:   4    -0.187887119891E+04    0.49961E-05   -0.11120E-05  4749   0.177E-03    0.571E-03
RMM:   5    -0.187887119933E+04   -0.42557E-06   -0.87730E-06  4349   0.131E-03
  62 F= -.19032230E+04 E0= -.19032230E+04  d E =-.433558E-11
       N       E                     dE             d eps       ncg     rms          rms(c)
DAV:   1    -0.187887034772E+04    0.85118E-03   -0.31956E-01  8320   0.306E-01    0.168E-01
RMM:   2    -0.187887036670E+04   -0.18978E-04   -0.13184E-03  6592   0.192E-02    0.100E-01
RMM:   3    -0.187887038729E+04   -0.20583E-04   -0.29669E-04  6471   0.841E-03    0.798E-03
RMM:   4    -0.187887038727E+04    0.13490E-07   -0.66021E-06  4671   0.149E-03
  63 F= -.19032219E+04 E0= -.19032219E+04  d E =-.443695E-11
       N       E                     dE             d eps       ncg     rms          rms(c)
DAV:   1    -0.187887008717E+04    0.30012E-03   -0.16262E-01  8896   0.214E-01    0.143E-01
RMM:   2    -0.187886998102E+04    0.10614E-03   -0.11411E-03  6651   0.173E-02    0.813E-02
RMM:   3    -0.187886997593E+04    0.50905E-05   -0.39610E-04  6348   0.860E-03    0.186E-02
RMM:   4    -0.187886997066E+04    0.52723E-05   -0.13982E-05  5178   0.223E-03    0.105E-02
RMM:   5    -0.187886996973E+04    0.93701E-06   -0.15375E-05  4726   0.174E-03    0.421E-03
RMM:   6    -0.187886996993E+04   -0.20643E-06   -0.93861E-07  3723   0.705E-04
  64 F= -.19032211E+04 E0= -.19032211E+04  d E =-.445295E-11
       N       E                     dE             d eps       ncg     rms          rms(c)
DAV:   1    -0.187886961411E+04    0.35561E-03   -0.33692E-01  8896   0.316E-01    0.243E-01
RMM:   2    -0.187886909039E+04    0.52372E-03   -0.32726E-03  6924   0.298E-02    0.132E-01
RMM:   3    -0.187886902119E+04    0.69194E-04   -0.13301E-03  6784   0.152E-02    0.350E-02
RMM:   4    -0.187886900046E+04    0.20734E-04   -0.42856E-05  5731   0.372E-03    0.177E-02
RMM:   5    -0.187886900103E+04   -0.56991E-06   -0.60405E-05  5805   0.328E-03    0.909E-03
RMM:   6    -0.187886900029E+04    0.74180E-06   -0.20308E-06  4082   0.102E-03
  65 F= -.19032212E+04 E0= -.19032212E+04  d E =-.435313E-11
       N       E                     dE             d eps       ncg     rms          rms(c)
DAV:   1    -0.187887008346E+04   -0.10824E-02   -0.16286E-01  8384   0.215E-01    0.122E-01
RMM:   2    -0.187887009235E+04   -0.88923E-05   -0.73656E-04  6604   0.142E-02    0.734E-02
RMM:   3    -0.187887010206E+04   -0.97134E-05   -0.17255E-04  6452   0.638E-03    0.623E-03
RMM:   4    -0.187887010203E+04    0.29118E-07   -0.50388E-06  4544   0.128E-03
  66 F= -.19032204E+04 E0= -.19032204E+04  d E =-.448050E-11
       N       E                     dE             d eps       ncg     rms          rms(c)
DAV:   1    -0.187886859698E+04    0.15051E-02   -0.34316E-01  8768   0.313E-01    0.256E-01
RMM:   2    -0.187886797131E+04    0.62567E-03   -0.36155E-03  6969   0.315E-02    0.142E-01
RMM:   3    -0.187886787126E+04    0.10006E-03   -0.16370E-03  6902   0.164E-02    0.390E-02
RMM:   4    -0.187886783809E+04    0.33166E-04   -0.48705E-05  5746   0.382E-03    0.201E-02
RMM:   5    -0.187886783783E+04    0.25633E-06   -0.87394E-05  6010   0.388E-03    0.106E-02
RMM:   6    -0.187886783565E+04    0.21872E-05   -0.27727E-06  4261   0.113E-03    0.511E-03
RMM:   7    -0.187886783677E+04   -0.11253E-05   -0.11564E-05  4336   0.135E-03    0.370E-03
RMM:   8    -0.187886783733E+04   -0.55385E-06   -0.11386E-06  3520   0.565E-04
  67 F= -.19032208E+04 E0= -.19032208E+04  d E =-.428467E-11
       N       E                     dE             d eps       ncg     rms          rms(c)
DAV:   1    -0.187887035636E+04   -0.25196E-02   -0.17319E-01  8768   0.254E-01    0.192E-01
RMM:   2    -0.187886985819E+04    0.49817E-03   -0.24995E-03  6845   0.278E-02    0.986E-02
RMM:   3    -0.187886981130E+04    0.46888E-04   -0.11998E-03  6569   0.134E-02    0.328E-02
RMM:   4    -0.187886979304E+04    0.18259E-04   -0.29524E-05  5273   0.305E-03    0.201E-02
RMM:   5    -0.187886979619E+04   -0.31442E-05   -0.10815E-04  5932   0.407E-03    0.118E-02
RMM:   6    -0.187886979214E+04    0.40430E-05   -0.34495E-06  4100   0.102E-03    0.623E-03
RMM:   7    -0.187886979248E+04   -0.33708E-06   -0.14607E-05  4472   0.153E-03    0.326E-03
RMM:   8    -0.187886979310E+04   -0.61857E-06   -0.46822E-07  3412   0.485E-04
  68 F= -.19032211E+04 E0= -.19032211E+04  d E =-.441655E-11
       N       E                     dE             d eps       ncg     rms          rms(c)
DAV:   1    -0.187886969818E+04    0.94298E-04   -0.33160E-01  8448   0.333E-01    0.255E-01
RMM:   2    -0.187886899694E+04    0.70124E-03   -0.33914E-03  6788   0.319E-02    0.137E-01
RMM:   3    -0.187886890005E+04    0.96887E-04   -0.14492E-03  6461   0.153E-02    0.379E-02
RMM:   4    -0.187886887259E+04    0.27466E-04   -0.54591E-05  5573   0.387E-03    0.160E-02
RMM:   5    -0.187886887611E+04   -0.35228E-05   -0.61340E-05  5571   0.318E-03    0.835E-03
RMM:   6    -0.187886887508E+04    0.10246E-05   -0.17580E-06  3920   0.857E-04    0.465E-03
RMM:   7    -0.187886887852E+04   -0.34381E-05   -0.14721E-05  4448   0.150E-03    0.518E-03
RMM:   8    -0.187886887902E+04   -0.49670E-06   -0.15075E-06  3449   0.591E-04
  69 F= -.19032209E+04 E0= -.19032209E+04  d E =-.442987E-11
       N       E                     dE             d eps       ncg     rms          rms(c)
DAV:   1    -0.187887112369E+04   -0.22452E-02   -0.15937E-01  8064   0.230E-01    0.130E-01
RMM:   2    -0.187887104121E+04    0.82471E-04   -0.73636E-04  6319   0.155E-02    0.749E-02
RMM:   3    -0.187887104630E+04   -0.50872E-05   -0.28094E-04  6220   0.734E-03    0.143E-02
RMM:   4    -0.187887104189E+04    0.44098E-05   -0.10117E-05  4768   0.183E-03    0.672E-03
RMM:   5    -0.187887104295E+04   -0.10576E-05   -0.11049E-05  4478   0.146E-03    0.363E-03
RMM:   6    -0.187887104328E+04   -0.32864E-06   -0.37399E-07  3492   0.531E-04
  70 F= -.19032225E+04 E0= -.19032225E+04  d E =-.413198E-11
       N       E                     dE             d eps       ncg     rms          rms(c)
DAV:   1    -0.187887016149E+04    0.88146E-03   -0.32354E-01  7968   0.324E-01    0.179E-01
RMM:   2    -0.187887008069E+04    0.80798E-04   -0.13207E-03  6499   0.205E-02    0.105E-01
RMM:   3    -0.187887008669E+04   -0.59985E-05   -0.43683E-04  6405   0.947E-03    0.153E-02
RMM:   4    -0.187887008181E+04    0.48735E-05   -0.13262E-05  4907   0.197E-03    0.717E-03
RMM:   5    -0.187887008301E+04   -0.11949E-05   -0.14664E-05  4738   0.163E-03    0.363E-03
RMM:   6    -0.187887008360E+04   -0.59021E-06   -0.46735E-07  3521   0.544E-04
  71 F= -.19032219E+04 E0= -.19032219E+04  d E =-.463302E-11
       N       E                     dE             d eps       ncg     rms          rms(c)
DAV:   1    -0.187886965764E+04    0.42537E-03   -0.16564E-01  8384   0.234E-01    0.172E-01
RMM:   2    -0.187886936214E+04    0.29550E-03   -0.15439E-03  6656   0.211E-02    0.918E-02
RMM:   3    -0.187886933561E+04    0.26532E-04   -0.58356E-04  6318   0.998E-03    0.251E-02
RMM:   4    -0.187886932644E+04    0.91655E-05   -0.24037E-05  5186   0.259E-03    0.955E-03
RMM:   5    -0.187886932723E+04   -0.78790E-06   -0.18253E-05  4762   0.185E-03    0.482E-03
RMM:   6    -0.187886932705E+04    0.17579E-06   -0.61818E-07  3662   0.628E-04
  72 F= -.19032210E+04 E0= -.19032210E+04  d E =-.431920E-11
       N       E                     dE             d eps       ncg     rms          rms(c)
DAV:   1    -0.187887050192E+04   -0.11747E-02   -0.33113E-01  8416   0.333E-01    0.244E-01
RMM:   2    -0.187886990753E+04    0.59439E-03   -0.31692E-03  6902   0.302E-02    0.131E-01
RMM:   3    -0.187886984039E+04    0.67142E-04   -0.12160E-03  6688   0.145E-02    0.362E-02
RMM:   4    -0.187886981881E+04    0.21573E-04   -0.52477E-05  5732   0.387E-03    0.132E-02
RMM:   5    -0.187886982099E+04   -0.21810E-05   -0.35896E-05  5388   0.260E-03    0.703E-03
RMM:   6    -0.187886982076E+04    0.23696E-06   -0.11885E-06  3862   0.799E-04
  73 F= -.19032215E+04 E0= -.19032215E+04  d E =-.444695E-11
       N       E                     dE             d eps       ncg     rms          rms(c)
DAV:   1    -0.187887058089E+04   -0.75989E-03   -0.16538E-01  8800   0.253E-01    0.153E-01
RMM:   2    -0.187887046855E+04    0.11234E-03   -0.17713E-03  6961   0.228E-02    0.864E-02
RMM:   3    -0.187887045514E+04    0.13411E-04   -0.52772E-04  6665   0.102E-02    0.215E-02
RMM:   4    -0.187887044618E+04    0.89586E-05   -0.18867E-05  5330   0.245E-03    0.101E-02
RMM:   5    -0.187887044621E+04   -0.33106E-07   -0.23890E-05  5433   0.214E-03    0.488E-03
RMM:   6    -0.187887044578E+04    0.42735E-06   -0.69654E-07  3707   0.634E-04
  74 F= -.19032223E+04 E0= -.19032223E+04  d E =-.404740E-11
       N       E                     dE             d eps       ncg     rms          rms(c)
DAV:   1    -0.187887061056E+04   -0.16435E-03   -0.33010E-01  8128   0.338E-01    0.188E-01
RMM:   2    -0.187887052395E+04    0.86617E-04   -0.18933E-03  7136   0.255E-02    0.109E-01
RMM:   3    -0.187887052162E+04    0.23223E-05   -0.60458E-04  6994   0.117E-02    0.197E-02
RMM:   4    -0.187887051435E+04    0.72700E-05   -0.18343E-05  5680   0.257E-03    0.883E-03
RMM:   5    -0.187887051423E+04    0.12080E-06   -0.23046E-05  5566   0.214E-03    0.404E-03
RMM:   6    -0.187887051378E+04    0.45828E-06   -0.15730E-06  3768   0.672E-04
  75 F= -.19032220E+04 E0= -.19032220E+04  d E =-.473034E-11
       N       E                     dE             d eps       ncg     rms          rms(c)
DAV:   1    -0.187887081008E+04   -0.29584E-03   -0.16683E-01  8384   0.242E-01    0.143E-01
RMM:   2    -0.187887071465E+04    0.95421E-04   -0.11067E-03  6990   0.191E-02    0.811E-02
RMM:   3    -0.187887069989E+04    0.14761E-04   -0.39761E-04  6762   0.948E-03    0.172E-02
RMM:   4    -0.187887069368E+04    0.62153E-05   -0.13810E-05  5362   0.212E-03    0.722E-03
RMM:   5    -0.187887069373E+04   -0.51397E-07   -0.12474E-05  5110   0.161E-03    0.332E-03
RMM:   6    -0.187887069354E+04    0.19194E-06   -0.48900E-07  3545   0.523E-04
  76 F= -.19032222E+04 E0= -.19032222E+04  d E =-.464217E-11
       N       E                     dE             d eps       ncg     rms          rms(c)
DAV:   1    -0.187887056528E+04    0.12845E-03   -0.32729E-01  8256   0.334E-01    0.185E-01
RMM:   2    -0.187887049255E+04    0.72738E-04   -0.16554E-03  6968   0.247E-02    0.107E-01
RMM:   3    -0.187887046297E+04    0.29578E-04   -0.52595E-04  6857   0.114E-02    0.174E-02
RMM:   4    -0.187887045613E+04    0.68430E-05   -0.15984E-05  5459   0.229E-03    0.735E-03
RMM:   5    -0.187887045586E+04    0.26358E-06   -0.15503E-05  5203   0.177E-03    0.333E-03
RMM:   6    -0.187887045566E+04    0.19830E-06   -0.18140E-06  3735   0.673E-04
  77 F= -.19032222E+04 E0= -.19032222E+04  d E =-.420369E-11
       N       E                     dE             d eps       ncg     rms          rms(c)
DAV:   1    -0.187886940669E+04    0.10492E-02   -0.17901E-01  8704   0.253E-01    0.201E-01
RMM:   2    -0.187886897713E+04    0.42957E-03   -0.23168E-03  7041   0.279E-02    0.107E-01
RMM:   3    -0.187886890791E+04    0.69221E-04   -0.10302E-03  6872   0.140E-02    0.310E-02
RMM:   4    -0.187886888765E+04    0.20251E-04   -0.31279E-05  5685   0.312E-03    0.143E-02
RMM:   5    -0.187886888755E+04    0.10550E-06   -0.50332E-05  5902   0.305E-03    0.699E-03
RMM:   6    -0.187886888617E+04    0.13824E-05   -0.18589E-06  3907   0.765E-04    0.325E-03
RMM:   7    -0.187886888696E+04   -0.79272E-06   -0.84476E-06  4403   0.124E-03
  78 F= -.19032197E+04 E0= -.19032197E+04  d E =-.435457E-11
       N       E                     dE             d eps       ncg     rms          rms(c)
DAV:   1    -0.187886872976E+04    0.15640E-03   -0.35995E-01  8736   0.354E-01    0.297E-01
RMM:   2    -0.187886769557E+04    0.10342E-02   -0.49559E-03  7144   0.425E-02    0.159E-01
RMM:   3    -0.187886752904E+04    0.16653E-03   -0.24429E-03  7079   0.210E-02    0.473E-02
RMM:   4    -0.187886747791E+04    0.51133E-04   -0.71576E-05  6070   0.463E-03    0.231E-02
RMM:   5    -0.187886747757E+04    0.33858E-06   -0.13634E-04  6345   0.487E-03    0.116E-02
RMM:   6    -0.187886747309E+04    0.44751E-05   -0.67294E-06  4498   0.125E-03    0.455E-03
RMM:   7    -0.187886747478E+04   -0.16847E-05   -0.18777E-05  4957   0.184E-03    0.622E-03
RMM:   8    -0.187886747336E+04    0.14188E-05   -0.24477E-06  3849   0.755E-04    0.234E-03
RMM:   9    -0.187886747362E+04   -0.25651E-06   -0.19693E-06  3702   0.692E-04
  79 F= -.19032200E+04 E0= -.19032200E+04  d E =-.442221E-11
       N       E                     dE             d eps       ncg     rms          rms(c)
DAV:   1    -0.187886930133E+04   -0.18280E-02   -0.16853E-01  8896   0.263E-01    0.166E-01
RMM:   2    -0.187886920866E+04    0.92669E-04   -0.15840E-03  6914   0.248E-02    0.980E-02
RMM:   3    -0.187886916978E+04    0.38879E-04   -0.41008E-04  6660   0.998E-03    0.159E-02
RMM:   4    -0.187886916295E+04    0.68291E-05   -0.11918E-05  5112   0.200E-03    0.814E-03
RMM:   5    -0.187886916163E+04    0.13248E-05   -0.16774E-05  5017   0.180E-03    0.390E-03
RMM:   6    -0.187886916179E+04   -0.16052E-06   -0.50696E-07  3580   0.576E-04
  80 F= -.19032219E+04 E0= -.19032219E+04  d E =-.428069E-11
       N       E                     dE             d eps       ncg     rms          rms(c)
DAV:   1    -0.187887153493E+04   -0.23733E-02   -0.33119E-01  8544   0.342E-01    0.199E-01
RMM:   2    -0.187887134459E+04    0.19034E-03   -0.19989E-03  6846   0.257E-02    0.115E-01
RMM:   3    -0.187887133370E+04    0.10892E-04   -0.67549E-04  6671   0.119E-02    0.239E-02
RMM:   4    -0.187887132189E+04    0.11811E-04   -0.24572E-05  5507   0.291E-03    0.115E-02
RMM:   5    -0.187887132139E+04    0.49599E-06   -0.21424E-05  5300   0.218E-03    0.519E-03
RMM:   6    -0.187887132168E+04   -0.28929E-06   -0.91731E-07  3825   0.752E-04
  81 F= -.19032219E+04 E0= -.19032219E+04  d E =-.449175E-11
       N       E                     dE             d eps       ncg     rms          rms(c)
DAV:   1    -0.187886884510E+04    0.24763E-02   -0.16585E-01  8544   0.241E-01    0.136E-01
RMM:   2    -0.187886877884E+04    0.66261E-04   -0.90685E-04  6625   0.174E-02    0.785E-02
RMM:   3    -0.187886878683E+04   -0.79940E-05   -0.29091E-04  6315   0.797E-03    0.132E-02
RMM:   4    -0.187886878397E+04    0.28595E-05   -0.99343E-06  4903   0.181E-03    0.697E-03
RMM:   5    -0.187886878380E+04    0.17355E-06   -0.65624E-06  4395   0.126E-03
  82 F= -.19032204E+04 E0= -.19032204E+04  d E =-.449570E-11
       N       E                     dE             d eps       ncg     rms          rms(c)
DAV:   1    -0.187886985450E+04   -0.10705E-02   -0.34753E-01  8960   0.351E-01    0.277E-01
RMM:   2    -0.187886899523E+04    0.85926E-03   -0.43993E-03  7055   0.385E-02    0.148E-01
RMM:   3    -0.187886886678E+04    0.12845E-03   -0.18430E-03  6890   0.185E-02    0.425E-02
RMM:   4    -0.187886883186E+04    0.34929E-04   -0.64289E-05  5885   0.439E-03    0.181E-02
RMM:   5    -0.187886883340E+04   -0.15434E-05   -0.74353E-05  5886   0.365E-03    0.913E-03
RMM:   6    -0.187886883145E+04    0.19506E-05   -0.20909E-06  4103   0.937E-04    0.490E-03
RMM:   7    -0.187886883281E+04   -0.13641E-05   -0.15877E-05  4706   0.165E-03    0.529E-03
RMM:   8    -0.187886883226E+04    0.55316E-06   -0.21550E-06  3611   0.685E-04
  83 F= -.19032205E+04 E0= -.19032205E+04  d E =-.432756E-11
       N       E                     dE             d eps       ncg     rms          rms(c)
DAV:   1    -0.187887043862E+04   -0.16058E-02   -0.16293E-01  8160   0.243E-01    0.124E-01
RMM:   2    -0.187887042525E+04    0.13367E-04   -0.79305E-04  6749   0.170E-02    0.734E-02
RMM:   3    -0.187887043170E+04   -0.64542E-05   -0.23460E-04  6530   0.771E-03    0.108E-02
RMM:   4    -0.187887042865E+04    0.30542E-05   -0.60628E-06  4656   0.148E-03    0.588E-03
RMM:   5    -0.187887042828E+04    0.37381E-06   -0.92208E-06  4646   0.136E-03
  84 F= -.19032219E+04 E0= -.19032219E+04  d E =-.450109E-11
       N       E                     dE             d eps       ncg     rms          rms(c)
DAV:   1    -0.187887035696E+04    0.71694E-04   -0.33163E-01  8736   0.345E-01    0.210E-01
RMM:   2    -0.187887007020E+04    0.28675E-03   -0.22380E-03  7047   0.273E-02    0.117E-01
RMM:   3    -0.187887004661E+04    0.23593E-04   -0.88753E-04  6913   0.137E-02    0.278E-02
RMM:   4    -0.187887002981E+04    0.16801E-04   -0.37749E-05  5808   0.326E-03    0.992E-03
RMM:   5    -0.187887003081E+04   -0.10015E-05   -0.26164E-05  5442   0.233E-03    0.530E-03
RMM:   6    -0.187887003035E+04    0.46771E-06   -0.91960E-07  3774   0.667E-04
  85 F= -.19032219E+04 E0= -.19032219E+04  d E =-.426963E-11
       N       E                     dE             d eps       ncg     rms          rms(c)
DAV:   1    -0.187886915549E+04    0.87533E-03   -0.16805E-01  8704   0.260E-01    0.164E-01
RMM:   2    -0.187886900321E+04    0.15228E-03   -0.12401E-03  6912   0.207E-02    0.942E-02
RMM:   3    -0.187886895534E+04    0.47866E-04   -0.40802E-04  6610   0.986E-03    0.135E-02
RMM:   4    -0.187886895220E+04    0.31403E-05   -0.10414E-05  4908   0.187E-03    0.684E-03
RMM:   5    -0.187886895086E+04    0.13393E-05   -0.10103E-05  4772   0.149E-03    0.328E-03
RMM:   6    -0.187886895082E+04    0.39654E-07   -0.41608E-07  3548   0.525E-04
  86 F= -.19032205E+04 E0= -.19032205E+04  d E =-.443672E-11
       N       E                     dE             d eps       ncg     rms          rms(c)
DAV:   1    -0.187886999346E+04   -0.10426E-02   -0.34323E-01  8768   0.338E-01    0.281E-01
RMM:   2    -0.187886905204E+04    0.94141E-03   -0.42316E-03  6993   0.363E-02    0.146E-01
RMM:   3    -0.187886892891E+04    0.12313E-03   -0.16982E-03  6837   0.174E-02    0.434E-02
RMM:   4    -0.187886889714E+04    0.31773E-04   -0.67078E-05  5995   0.456E-03    0.182E-02
RMM:   5    -0.187886889729E+04   -0.15547E-06   -0.62115E-05  5934   0.359E-03    0.969E-03
RMM:   6    -0.187886889566E+04    0.16373E-05   -0.21541E-06  4230   0.104E-03    0.487E-03
RMM:   7    -0.187886889688E+04   -0.12267E-05   -0.11955E-05  4615   0.145E-03    0.443E-03
RMM:   8    -0.187886889677E+04    0.11262E-06   -0.15080E-06  3559   0.618E-04
  87 F= -.19032206E+04 E0= -.19032206E+04  d E =-.434670E-11
       N       E                     dE             d eps       ncg     rms          rms(c)
DAV:   1    -0.187887029451E+04   -0.13976E-02   -0.16292E-01  8480   0.232E-01    0.134E-01
RMM:   2    -0.187887021949E+04    0.75014E-04   -0.87291E-04  6449   0.166E-02    0.769E-02
RMM:   3    -0.187887022259E+04   -0.30955E-05   -0.29287E-04  6408   0.776E-03    0.145E-02
RMM:   4    -0.187887021804E+04    0.45505E-05   -0.10191E-05  4857   0.175E-03    0.621E-03
RMM:   5    -0.187887021858E+04   -0.54171E-06   -0.12087E-05  4746   0.152E-03    0.303E-03
RMM:   6    -0.187887021894E+04   -0.35889E-06   -0.17690E-06  3539   0.646E-04
  88 F= -.19032222E+04 E0= -.19032222E+04  d E =-.510775E-11
       N       E                     dE             d eps       ncg     rms          rms(c)
DAV:   1    -0.187887098921E+04   -0.77064E-03   -0.32476E-01  8352   0.328E-01    0.186E-01
RMM:   2    -0.187887084030E+04    0.14892E-03   -0.15841E-03  6728   0.226E-02    0.108E-01
RMM:   3    -0.187887083811E+04    0.21908E-05   -0.55744E-04  6700   0.108E-02    0.212E-02
RMM:   4    -0.187887083091E+04    0.71912E-05   -0.20721E-05  5533   0.281E-03    0.116E-02
RMM:   5    -0.187887083053E+04    0.38143E-06   -0.21089E-05  5311   0.213E-03    0.429E-03
RMM:   6    -0.187887083143E+04   -0.89877E-06   -0.77318E-07  3801   0.697E-04
  89 F= -.19032222E+04 E0= -.19032222E+04  d E =-.373409E-11
       N       E                     dE             d eps       ncg     rms          rms(c)
DAV:   1    -0.187887009257E+04    0.73796E-03   -0.16538E-01  8736   0.236E-01    0.164E-01
RMM:   2    -0.187886981940E+04    0.27318E-03   -0.14347E-03  6715   0.207E-02    0.889E-02
RMM:   3    -0.187886980141E+04    0.17985E-04   -0.54059E-04  6627   0.101E-02    0.249E-02
RMM:   4    -0.187886979238E+04    0.90325E-05   -0.26392E-05  5613   0.294E-03    0.104E-02
RMM:   5    -0.187886979258E+04   -0.20106E-06   -0.17040E-05  5196   0.201E-03    0.500E-03
RMM:   6    -0.187886979226E+04    0.31994E-06   -0.61729E-07  3725   0.641E-04
  90 F= -.19032215E+04 E0= -.19032215E+04  d E =-.435395E-11
       N       E                     dE             d eps       ncg     rms          rms(c)
DAV:   1    -0.187887068401E+04   -0.89143E-03   -0.33281E-01  8544   0.335E-01    0.222E-01
RMM:   2    -0.187887027980E+04    0.40421E-03   -0.24669E-03  6925   0.275E-02    0.121E-01
RMM:   3    -0.187887024222E+04    0.37588E-04   -0.93446E-04  6802   0.133E-02    0.315E-02
RMM:   4    -0.187887022466E+04    0.17558E-04   -0.44962E-05  5910   0.366E-03    0.113E-02
RMM:   5    -0.187887022573E+04   -0.10730E-05   -0.26305E-05  5468   0.241E-03    0.636E-03
RMM:   6    -0.187887022544E+04    0.29139E-06   -0.10210E-06  3878   0.768E-04
  91 F= -.19032218E+04 E0= -.19032218E+04  d E =-.447461E-11
       N       E                     dE             d eps       ncg     rms          rms(c)
DAV:   1    -0.187887046715E+04   -0.24142E-03   -0.13157E+00  8000   0.944E-01    0.205E-01
RMM:   2    -0.187887087629E+04   -0.40914E-03   -0.78981E-03  7769   0.718E-02    0.205E-01
RMM:   3    -0.187887081588E+04    0.60419E-04   -0.30646E-04  6905   0.102E-02    0.160E-01
RMM:   4    -0.187887081381E+04    0.20678E-05   -0.25833E-04  7107   0.105E-02    0.709E-02
RMM:   5    -0.187887077683E+04    0.36983E-04   -0.90051E-05  6538   0.594E-03    0.101E-02
RMM:   6    -0.187887077569E+04    0.11333E-05   -0.34651E-06  5106   0.148E-03    0.462E-03
RMM:   7    -0.187887077508E+04    0.61677E-06   -0.16716E-06  4515   0.977E-04
  92 F= -.19032219E+04 E0= -.19032219E+04  d E =-.368401E-11
       N       E                     dE             d eps       ncg     rms          rms(c)
DAV:   1    -0.187886823906E+04    0.25366E-02   -0.49196E+00  8000   0.182E+00    0.359E-01
RMM:   2    -0.187886997047E+04   -0.17314E-02   -0.27055E-02  7895   0.136E-01    0.380E-01
RMM:   3    -0.187886985408E+04    0.11639E-03   -0.93490E-04  7294   0.173E-02    0.318E-01
RMM:   4    -0.187886987079E+04   -0.16710E-04   -0.92781E-04  7552   0.201E-02    0.146E-01
RMM:   5    -0.187886967613E+04    0.19466E-03   -0.38030E-04  7113   0.120E-02    0.216E-02
RMM:   6    -0.187886967133E+04    0.48018E-05   -0.16623E-05  6186   0.300E-03    0.136E-02
RMM:   7    -0.187886966757E+04    0.37583E-05   -0.96964E-06  5844   0.212E-03    0.418E-03
RMM:   8    -0.187886966746E+04    0.10482E-06   -0.10035E-06  4404   0.795E-04
  93 F= -.19032218E+04 E0= -.19032218E+04  d E =-.531825E-11
       N       E                     dE             d eps       ncg     rms          rms(c)
DAV:   1    -0.187886434566E+04    0.53219E-02   -0.25334E+00  8000   0.133E+00    0.546E-01
RMM:   2    -0.187886564604E+04   -0.13004E-02   -0.21907E-02  7919   0.117E-01    0.647E-01
RMM:   3    -0.187886561207E+04    0.33972E-04   -0.61880E-04  7453   0.144E-02    0.650E-01
RMM:   4    -0.187886580335E+04   -0.19128E-03   -0.28517E-04  7402   0.111E-02    0.621E-01
RMM:   5    -0.187886715612E+04   -0.13528E-02   -0.12398E-02  7994   0.746E-02    0.109E+00
RMM:   6    -0.187886613697E+04    0.10191E-02   -0.65311E-04  7831   0.196E-02    0.871E-01
RMM:   7    -0.187886526837E+04    0.86860E-03   -0.18245E-03  7921   0.287E-02    0.276E-01
RMM:   8    -0.187886520604E+04    0.62336E-04   -0.71246E-04  7683   0.174E-02    0.228E-02
RMM:   9    -0.187886520472E+04    0.13188E-05   -0.18905E-05  6358   0.349E-03    0.428E-02
RMM:  10    -0.187886520890E+04   -0.41803E-05   -0.38816E-06  5315   0.145E-03    0.474E-02
RMM:  11    -0.187886521249E+04   -0.35963E-05   -0.31827E-05  6415   0.389E-03    0.343E-02
RMM:  12    -0.187886521159E+04    0.90463E-06   -0.16233E-06  4614   0.103E-03
  94 F= -.19032178E+04 E0= -.19032178E+04  d E =-.743337E-11
       N       E                     dE             d eps       ncg     rms          rms(c)
DAV:   1    -0.187886545629E+04   -0.24379E-03   -0.49734E+00  8000   0.185E+00    0.800E-01
RMM:   2    -0.187886827734E+04   -0.28211E-02   -0.46628E-02  7947   0.174E-01    0.951E-01
RMM:   3    -0.187886829086E+04   -0.13517E-04   -0.13092E-03  7803   0.219E-02    0.983E-01
RMM:   4    -0.187886828992E+04    0.93538E-06   -0.28746E-03  7865   0.344E-02    0.822E-01
RMM:   5    -0.187886828088E+04    0.90413E-05   -0.11901E-03  7816   0.220E-02    0.856E-01
RMM:   6    -0.187886823606E+04    0.44820E-04   -0.17719E-04  7505   0.985E-03    0.943E-01
RMM:   7    -0.187886859238E+04   -0.35632E-03   -0.12393E-04  6975   0.751E-03    0.109E+00
RMM:   8    -0.187886878695E+04   -0.19457E-03   -0.40803E-05  6616   0.432E-03    0.117E+00
RMM:   9    -0.187886829706E+04    0.48989E-03   -0.15227E-04  7178   0.857E-03    0.947E-01
RMM:  10    -0.187886792791E+04    0.36915E-03   -0.17163E-04  7367   0.889E-03    0.761E-01
RMM:  11    -0.187886747795E+04    0.44996E-03   -0.49148E-04  7640   0.149E-02    0.444E-01
RMM:  12    -0.187886727846E+04    0.19949E-03   -0.48822E-04  7664   0.148E-02    0.150E-01
RMM:  13    -0.187886726856E+04    0.98936E-05   -0.61440E-05  6882   0.520E-03    0.821E-02
RMM:  14    -0.187886727516E+04   -0.65914E-05   -0.35039E-06  5150   0.129E-03    0.828E-02
RMM:  15    -0.187886728058E+04   -0.54235E-05   -0.92006E-06  6149   0.213E-03    0.296E-02
RMM:  16    -0.187886728250E+04   -0.19205E-05   -0.59797E-06  5652   0.168E-03    0.311E-03
RMM:  17    -0.187886728465E+04   -0.21510E-05   -0.53940E-07  4127   0.578E-04    0.690E-04
RMM:  18    -0.187886728788E+04   -0.32330E-05   -0.31111E-07  3722   0.439E-04    0.122E-03
RMM:  19    -0.187886728925E+04   -0.13618E-05   -0.12414E-07  3190   0.319E-04    0.720E-04
RMM:  20    -0.187886729072E+04   -0.14721E-05   -0.86994E-08  3027   0.288E-04    0.244E-03
RMM:  21    -0.187886729127E+04   -0.55374E-06   -0.35354E-08  2303   0.241E-04
  95 F= -.19032180E+04 E0= -.19032180E+04  d E =-.270715E-11
       N       E                     dE             d eps       ncg     rms          rms(c)
DAV:   1    -0.187886986171E+04   -0.25710E-02   -0.24733E+00  8000   0.129E+00    0.393E-01
RMM:   2    -0.187887074645E+04   -0.88473E-03   -0.15536E-02  7882   0.102E-01    0.478E-01
RMM:   3    -0.187887072772E+04    0.18729E-04   -0.46972E-04  7224   0.123E-02    0.481E-01
RMM:   4    -0.187887078280E+04   -0.55087E-04   -0.21145E-04  7351   0.955E-03    0.463E-01
RMM:   5    -0.187887178635E+04   -0.10035E-02   -0.78620E-03  7983   0.578E-02    0.689E-01
RMM:   6    -0.187887153595E+04    0.25040E-03   -0.35460E-04  7677   0.149E-02    0.694E-01
RMM:   7    -0.187887056180E+04    0.97415E-03   -0.16731E-03  7873   0.270E-02    0.237E-01
RMM:   8    -0.187887046012E+04    0.10168E-03   -0.95118E-04  7703   0.197E-02    0.347E-02
RMM:   9    -0.187887045455E+04    0.55792E-05   -0.27403E-05  6453   0.417E-03    0.289E-02
RMM:  10    -0.187887045650E+04   -0.19549E-05   -0.26556E-06  4951   0.125E-03    0.339E-02
RMM:  11    -0.187887045999E+04   -0.34856E-05   -0.19434E-05  6194   0.300E-03    0.223E-02
RMM:  12    -0.187887045963E+04    0.35434E-06   -0.12707E-06  4291   0.867E-04
  96 F= -.19032224E+04 E0= -.19032224E+04  d E =-.492129E-11
       N       E                     dE             d eps       ncg     rms          rms(c)
DAV:   1    -0.187887013820E+04    0.32178E-03   -0.48598E+00  8000   0.182E+00    0.300E-01
RMM:   2    -0.187887150635E+04   -0.13682E-02   -0.22931E-02  7862   0.121E-01    0.190E-01
RMM:   3    -0.187887126013E+04    0.24622E-03   -0.12914E-03  7410   0.224E-02    0.633E-02
RMM:   4    -0.187887126435E+04   -0.42153E-05   -0.19073E-04  6804   0.882E-03    0.314E-02
RMM:   5    -0.187887125537E+04    0.89789E-05   -0.22869E-05  6259   0.304E-03    0.121E-02
RMM:   6    -0.187887125404E+04    0.13308E-05   -0.50998E-06  5574   0.171E-03    0.332E-03
RMM:   7    -0.187887125479E+04   -0.74702E-06   -0.87431E-07  4365   0.740E-04
  97 F= -.19032226E+04 E0= -.19032226E+04  d E =-.416157E-11
       N       E                     dE             d eps       ncg     rms          rms(c)
DAV:   1    -0.187886820255E+04    0.30515E-02   -0.17659E+00  8000   0.105E+00    0.319E-01
RMM:   2    -0.187886856314E+04   -0.36060E-03   -0.13597E-02  7916   0.900E-02    0.203E-01
RMM:   3    -0.187886825802E+04    0.30513E-03   -0.10175E-03  7725   0.204E-02    0.922E-02
RMM:   4    -0.187886821120E+04    0.46822E-04   -0.39302E-04  7485   0.127E-02    0.392E-02
RMM:   5    -0.187886819421E+04    0.16983E-04   -0.37541E-05  6453   0.426E-03    0.144E-02
RMM:   6    -0.187886819108E+04    0.31362E-05   -0.15063E-05  6303   0.264E-03    0.470E-03
RMM:   7    -0.187886819119E+04   -0.11682E-06   -0.11699E-06  4545   0.870E-04
  98 F= -.19032194E+04 E0= -.19032194E+04  d E =-.844448E-11
       N       E                     dE             d eps       ncg     rms          rms(c)
DAV:   1    -0.187887025599E+04   -0.20649E-02   -0.21975E+00  8000   0.880E-01    0.548E-01
RMM:   2    -0.187886864820E+04    0.16078E-02   -0.15770E-02  7954   0.938E-02    0.354E-01
RMM:   3    -0.187886775609E+04    0.89211E-03   -0.38498E-03  7915   0.400E-02    0.164E-01
RMM:   4    -0.187886751244E+04    0.24365E-03   -0.10165E-03  7710   0.198E-02    0.495E-02
RMM:   5    -0.187886748829E+04    0.24154E-04   -0.69248E-05  6796   0.621E-03    0.284E-02
RMM:   6    -0.187886747454E+04    0.13743E-04   -0.57806E-05  6976   0.475E-03    0.867E-03
RMM:   7    -0.187886747288E+04    0.16585E-05   -0.45375E-06  5413   0.157E-03    0.307E-03
RMM:   8    -0.187886747296E+04   -0.74200E-07   -0.12600E-06  4618   0.824E-04
  99 F= -.19032195E+04 E0= -.19032195E+04  d E =-.244023E-11
       N       E                     dE             d eps       ncg     rms          rms(c)
DAV:   1    -0.187886729176E+04    0.18113E-03   -0.10656E+00  8000   0.628E-01    0.490E-01
RMM:   2    -0.187886632518E+04    0.96658E-03   -0.11660E-02  7963   0.809E-02    0.400E-01
RMM:   3    -0.187886562117E+04    0.70401E-03   -0.23395E-03  7823   0.328E-02    0.186E-01
RMM:   4    -0.187886520828E+04    0.41288E-03   -0.12659E-03  7876   0.244E-02    0.421E-02
RMM:   5    -0.187886518290E+04    0.25381E-04   -0.58727E-05  7110   0.587E-03    0.234E-02
RMM:   6    -0.187886517218E+04    0.10727E-04   -0.48916E-05  7224   0.503E-03    0.736E-03
RMM:   7    -0.187886517471E+04   -0.25386E-05   -0.49625E-06  5749   0.170E-03    0.366E-03
RMM:   8    -0.187886518048E+04   -0.57638E-05   -0.42193E-06  5655   0.138E-03    0.223E-03
RMM:   9    -0.187886518729E+04   -0.68095E-05   -0.20836E-06  5013   0.105E-03    0.157E-03
RMM:  10    -0.187886519104E+04   -0.37534E-05   -0.73584E-07  4088   0.597E-04    0.658E-04
RMM:  11    -0.187886519577E+04   -0.47257E-05   -0.77773E-07  4498   0.619E-04    0.541E-04
RMM:  12    -0.187886519845E+04   -0.26850E-05   -0.29670E-07  3676   0.398E-04    0.247E-04
RMM:  13    -0.187886520030E+04   -0.18471E-05   -0.15763E-07  3399   0.318E-04    0.208E-04
RMM:  14    -0.187886520109E+04   -0.79049E-06   -0.45546E-08  2519   0.244E-04
 100 F= -.19032161E+04 E0= -.19032161E+04  d E =-.410613E-11
       N       E                     dE             d eps       ncg     rms          rms(c)
DAV:   1    -0.187886812102E+04   -0.29207E-02   -0.20572E+00  8000   0.910E-01    0.825E-01
RMM:   2    -0.187886590668E+04    0.22143E-02   -0.25329E-02  7972   0.116E-01    0.579E-01
RMM:   3    -0.187886441025E+04    0.14964E-02   -0.81996E-03  7953   0.650E-02    0.214E-01
RMM:   4    -0.187886361635E+04    0.79391E-03   -0.18263E-03  7861   0.274E-02    0.874E-02
RMM:   5    -0.187886356042E+04    0.55927E-04   -0.16265E-04  7474   0.872E-03    0.398E-02
RMM:   6    -0.187886352723E+04    0.33190E-04   -0.97129E-05  7575   0.733E-03    0.939E-03
RMM:   7    -0.187886353277E+04   -0.55426E-05   -0.12588E-05  6586   0.262E-03    0.550E-03
RMM:   8    -0.187886354290E+04   -0.10124E-04   -0.44730E-06  5730   0.143E-03    0.325E-03
RMM:   9    -0.187886356254E+04   -0.19639E-04   -0.92254E-06  6501   0.207E-03    0.184E-03
RMM:  10    -0.187886357105E+04   -0.85111E-05   -0.13376E-06  4726   0.814E-04    0.103E-03
RMM:  11    -0.187886358190E+04   -0.10851E-04   -0.14365E-06  4783   0.764E-04    0.466E-04
RMM:  12    -0.187886358557E+04   -0.36664E-05   -0.41123E-07  3983   0.438E-04    0.340E-04
RMM:  13    -0.187886358945E+04   -0.38797E-05   -0.27658E-07  3652   0.380E-04    0.179E-04
RMM:  14    -0.187886359076E+04   -0.13113E-05   -0.93362E-08  2984   0.271E-04    0.122E-04
RMM:  15    -0.187886359147E+04   -0.70845E-06   -0.35824E-08  2362   0.234E-04
 101 F= -.19032160E+04 E0= -.19032160E+04  d E =-.498714E-11
       N       E                     dE             d eps       ncg     rms          rms(c)
DAV:   1    -0.187886922456E+04   -0.56338E-02   -0.10520E+00  8000   0.630E-01    0.476E-01
RMM:   2    -0.187886848100E+04    0.74355E-03   -0.10701E-02  7951   0.784E-02    0.349E-01
RMM:   3    -0.187886779582E+04    0.68519E-03   -0.28694E-03  7937   0.385E-02    0.109E-01
RMM:   4    -0.187886764472E+04    0.15109E-03   -0.61298E-04  7665   0.162E-02    0.533E-02
RMM:   5    -0.187886761448E+04    0.30247E-04   -0.61331E-05  6955   0.518E-03    0.255E-02
RMM:   6    -0.187886760039E+04    0.14083E-04   -0.51646E-05  7207   0.526E-03    0.607E-03
RMM:   7    -0.187886760299E+04   -0.25969E-05   -0.30633E-06  5325   0.138E-03    0.338E-03
RMM:   8    -0.187886760867E+04   -0.56780E-05   -0.28869E-06  5303   0.115E-03    0.189E-03
RMM:   9    -0.187886761571E+04   -0.70386E-05   -0.21778E-06  5132   0.103E-03    0.138E-03
RMM:  10    -0.187886762064E+04   -0.49314E-05   -0.76175E-07  4038   0.589E-04    0.658E-04
RMM:  11    -0.187886762633E+04   -0.56889E-05   -0.79764E-07  4590   0.618E-04    0.404E-04
RMM:  12    -0.187886762902E+04   -0.26875E-05   -0.26957E-07  3578   0.382E-04    0.199E-04
RMM:  13    -0.187886763073E+04   -0.17108E-05   -0.11625E-07  3268   0.288E-04    0.141E-04
RMM:  14    -0.187886763168E+04   -0.94969E-06   -0.36189E-08  2459   0.240E-04
 102 F= -.19032184E+04 E0= -.19032184E+04  d E =-.507361E-10
       N       E                     dE             d eps       ncg     rms          rms(c)
DAV:   1    -0.187886877341E+04   -0.11427E-02   -0.21101E+00  8000   0.887E-01    0.580E-01
RMM:   2    -0.187886707365E+04    0.16998E-02   -0.18823E-02  7983   0.105E-01    0.366E-01
RMM:   3    -0.187886580008E+04    0.12736E-02   -0.35357E-03  7944   0.402E-02    0.178E-01
RMM:   4    -0.187886536474E+04    0.43534E-03   -0.15047E-03  7904   0.262E-02    0.658E-02
RMM:   5    -0.187886529949E+04    0.65251E-04   -0.10593E-04  7311   0.759E-03    0.296E-02
RMM:   6    -0.187886527811E+04    0.21384E-04   -0.57164E-05  7396   0.539E-03    0.109E-02
RMM:   7    -0.187886528564E+04   -0.75335E-05   -0.14059E-05  6645   0.263E-03    0.497E-03
RMM:   8    -0.187886530412E+04   -0.18475E-04   -0.63132E-06  6112   0.158E-03    0.353E-03
RMM:   9    -0.187886534284E+04   -0.38722E-04   -0.10510E-05  6564   0.208E-03    0.245E-03
RMM:  10    -0.187886536251E+04   -0.19675E-04   -0.28695E-06  5190   0.106E-03    0.121E-03
RMM:  11    -0.187886538505E+04   -0.22535E-04   -0.21428E-06  4804   0.872E-04    0.770E-04
RMM:  12    -0.187886539423E+04   -0.91868E-05   -0.67351E-07  4237   0.540E-04    0.402E-04
RMM:  13    -0.187886540138E+04   -0.71443E-05   -0.46370E-07  4003   0.451E-04    0.320E-04
RMM:  14    -0.187886540342E+04   -0.20387E-05   -0.13898E-07  3188   0.297E-04    0.193E-04
RMM:  15    -0.187886540523E+04   -0.18159E-05   -0.10177E-07  3151   0.284E-04    0.855E-05
RMM:  16    -0.187886540583E+04   -0.59250E-06   -0.28860E-08  2296   0.228E-04
 103 F= -.19032180E+04 E0= -.19032180E+04  d E =-.793628E-10
