unknown system                          
           1
    23.411295    0.000000    0.000000
     0.000000   18.121237    0.000000
     0.000000    0.000000   26.883367
   C    H    O    Si   W 
   5  54 154  65   1
Direct configuration=     1
   0.51713816  0.48329003  0.74770948
   0.42173535  0.51894388  0.77404734
   0.38161441  0.50670510  0.73556805
   0.43635315  0.59605892  0.79153987
   0.33952627  0.44280169  0.73733116
   0.76090234  0.10266306  0.65112076
   0.92642768  0.27866896  0.35633493
   0.79333970  0.20727890  0.37345652
   0.97453911  0.94360860  0.32530279
   0.62573266  0.96347285  0.37523120
   0.82053840  0.99500666  0.36899263
   0.74999307  0.14117876  0.45803819
   0.91584910  0.24947786  0.50721040
   0.58349286  0.30426355  0.30592717
   0.88946448  0.33399706  0.61506921
   0.58957033  0.36021732  0.61415658
   0.59329952  0.87075116  0.57821247
   0.02490120  0.33578547  0.65754936
   0.93527051  0.41951423  0.45410146
   0.74613838  0.53031199  0.42248819
   0.79718999  0.38217892  0.63443991
   0.59110202  0.56868283  0.37803474
   0.71843379  0.64593279  0.38346059
   0.84115291  0.54242660  0.41959617
   0.00476455  0.60379815  0.35777830
   0.82835870  0.71235667  0.46794226
   0.87619989  0.59952435  0.72148351
   0.51999031  0.98556476  0.42170307
   0.22309457  0.98015484  0.39320502
   0.21637369  0.23785146  0.31923033
   0.15750105  0.32980623  0.27898292
   0.34154688  0.15558571  0.33077276
   0.22271586  0.04575893  0.32273843
   0.51104903  0.82608314  0.54672011
   0.40611961  0.24795561  0.65530791
   0.24343679  0.09380631  0.59895719
   0.31538097  0.48713646  0.44243467
   0.40895618  0.43873486  0.40569060
   0.39849950  0.79311361  0.38878680
   0.24420236  0.65543008  0.29432688
   0.31174138  0.41847571  0.36925764
   0.40547429  0.58427965  0.33881989
   0.13935762  0.48797365  0.35192946
   0.59326935  0.69798713  0.35239799
   0.46900683  0.86142747  0.44382838
   0.11243432  0.32926377  0.61235997
   0.07134564  0.66648981  0.64508232
   0.24496195  0.35658230  0.67559940
   0.24511870  0.81725568  0.66840979
   0.52703915  0.43773171  0.77294626
   0.54059584  0.53472043  0.75474871
   0.42731885  0.47445164  0.80109978
   0.36655298  0.55642164  0.71653330
   0.47775659  0.59913819  0.81056004
   0.43565891  0.63512760  0.76035344
   0.40301107  0.61275010  0.81835110
   0.32502050  0.42764530  0.69990085
   0.35841634  0.39407623  0.75515542
   0.30166474  0.46024820  0.75880230
   0.36894173  0.64835510  0.43900002
   0.34681565  0.50403387  0.42038813
   0.86065927  0.56631691  0.69669539
   0.34820594  0.96035733  0.53181325
   0.03318114  0.93212287  0.52857633
   0.63635548  0.07886855  0.48937667
   0.06864615  0.05226542  0.39511073
   0.45189954  0.12956232  0.42059728
   0.80588415  0.21365018  0.48316661
   0.97319282  0.18112957  0.59878966
   0.27476529  0.29917287  0.44851223
   0.55635417  0.77509129  0.44175101
   0.39128400  0.97197815  0.62086820
   0.17751724  0.34996845  0.40527312
   0.86634279  0.68417483  0.63737225
   0.86569601  0.96717693  0.46703846
   0.30104714  0.76093683  0.45792526
   0.42161095  0.26125222  0.37959630
   0.81115850  0.46544485  0.52014196
   0.98343754  0.07238446  0.52114295
   0.50858942  0.46625593  0.62825868
   0.03453641  0.91994776  0.42940526
   0.96303654  0.30319531  0.35125762
   0.06962669  0.33610577  0.37637178
   0.20829566  0.72864429  0.39536010
   0.03890126  0.41910192  0.49910875
   0.23626488  0.28646144  0.58765435
   0.39584803  0.19818114  0.64524247
   0.45383218  0.56466556  0.57703999
   0.90973419  0.74903648  0.55747150
   0.86912727  0.10804334  0.44227833
   0.57257679  0.66733185  0.37613173
   0.14242656  0.15912550  0.37597224
   0.35033313  0.76601852  0.60674809
   0.91099605  0.84504757  0.48317962
   0.06133801  0.53687171  0.44225348
   0.70833903  0.55516655  0.41995768
   0.07548726  0.81680680  0.48299416
   0.70046477  0.82755571  0.43263529
   0.73028586  0.04924359  0.54295105
   0.91611137  0.29968485  0.63070149
   0.73469732  0.85166202  0.61306547
   0.62512195  0.52739400  0.48637871
   0.55657330  0.62970304  0.46724942
   0.42643269  0.24770853  0.55626517
   0.97829009  0.72824363  0.47679564
   0.65378335  0.59410254  0.63350922
   0.39665996  0.74665662  0.51537296
   0.60269007  0.51766545  0.38567099
   0.71985169  0.63041519  0.55693949
   0.13673717  0.36682939  0.59745222
   0.06614199  0.54861247  0.54190765
   0.81870275  0.88401109  0.53648291
   0.82821553  0.35538514  0.45190334
   0.52754004  0.29845066  0.53192278
   0.73675091  0.49903018  0.59574609
   0.55743394  0.17243111  0.39490854
   0.80596408  0.25641257  0.38329286
   0.23744622  0.95325075  0.50791956
   0.69235099  0.77512721  0.54175320
   0.92344644  0.94967677  0.55307584
   0.52573722  0.31778112  0.39855594
   0.46664294  0.99111433  0.54648645
   0.83786868  0.09479409  0.53983441
   0.53790325  0.11641749  0.48623709
   0.35019344  0.18660873  0.43963639
   0.01176032  0.96241390  0.33524376
   0.45227762  0.58548635  0.67206727
   0.65496522  0.92539750  0.37922825
   0.07629334  0.68602626  0.43588102
   0.45234123  0.40499966  0.55219956
   0.71921944  0.70042085  0.37958300
   0.45034641  0.70416965  0.60080686
   0.75255106  0.70932458  0.47629548
   0.77934888  0.12021500  0.62110098
   0.99327462  0.30801347  0.44840298
   0.53482698  0.50670246  0.53127694
   0.81677759  0.49906173  0.42344221
   0.23529532  0.14577261  0.60549583
   0.20353331  0.83070132  0.47053363
   0.24012426  0.55970001  0.52215490
   0.06115296  0.62546474  0.62374973
   0.04607407  0.60234669  0.35417863
   0.80040834  0.97802960  0.60537437
   0.53799091  0.02769749  0.40450275
   0.60556525  0.31259694  0.60508045
   0.86154611  0.00408085  0.36920633
   0.09491131  0.14902284  0.46708233
   0.17137013  0.20237148  0.53009008
   0.64098865  0.70443872  0.45481558
   0.43678778  0.40976848  0.38641325
   0.57358592  0.05812387  0.57086723
   0.15143775  0.59340802  0.38895836
   0.26773979  0.60233753  0.39230630
   0.44025846  0.32219818  0.47032443
   0.23800967  0.15851113  0.42990119
   0.07271848  0.14994168  0.56262722
   0.84485549  0.54426499  0.59977077
   0.62117943  0.27993988  0.41090545
   0.60266699  0.89152667  0.46722346
   0.03138539  0.19528983  0.38899188
   0.60764975  0.19529912  0.54759971
   0.13279973  0.93835464  0.47948708
   0.07961646  0.27946469  0.51094047
   0.37109687  0.10588382  0.57275648
   0.06666824  0.69707101  0.53574983
   0.66648838  0.41538488  0.43001156
   0.79925692  0.72936835  0.56411017
   0.70383856  0.95720843  0.47018456
   0.59745029  0.63369413  0.55332754
   0.72284030  0.29368465  0.45166811
   0.97768028  0.31415002  0.54739464
   0.15828959  0.62972432  0.57066561
   0.63333384  0.32678308  0.50780070
   0.81953993  0.39641587  0.60559507
   0.95857820  0.02724304  0.41695300
   0.28205131  0.19575973  0.51880578
   0.24925755  0.44303289  0.46105570
   0.27198314  0.85037706  0.56898033
   0.20366815  0.68557317  0.48688872
   0.14712345  0.47606988  0.49254493
   0.22643656  0.42665954  0.55803726
   0.91141698  0.45274460  0.47371881
   0.86978818  0.70456011  0.46415352
   0.73812021  0.09283462  0.44522965
   0.22218344  0.92978119  0.40794682
   0.23216808  0.39545324  0.65348327
   0.63045573  0.88268613  0.59354247
   0.41022327  0.78906239  0.42343739
   0.91777135  0.19603829  0.50824515
   0.13254706  0.44353611  0.33227266
   0.15514768  0.30352326  0.31056042
   0.37300515  0.13090704  0.34795342
   0.03118583  0.29372541  0.63583609
   0.57268926  0.25686819  0.32009968
   0.24534493  0.77113501  0.65008893
   0.20737430  0.64840505  0.31036906
   0.27537441  0.39219130  0.36737583
   0.36535081  0.59758663  0.34222079
   0.22638085  0.05618082  0.35811888
   0.24120333  0.19607823  0.32934297
   0.50127293  0.89230162  0.45484168
   0.55002123  0.82791403  0.53434338
   0.54361914  0.64531728  0.63453128
   0.47848487  0.12288204  0.59581749
   0.26220474  0.69474589  0.56872350
   0.44247688  0.84735082  0.58156219
   0.76524917  0.61697897  0.64946963
   0.84465802  0.83158864  0.62288858
   0.63856354  0.73896607  0.62127568
   0.00787162  0.03309168  0.60293530
   0.28344982  0.00196106  0.59501922
   0.50291018  0.97223471  0.62851147
   0.44157947  0.38837881  0.69425007
   0.08322528  0.60642030  0.40641308
   0.40923863  0.76522296  0.57482216
   0.84176382  0.44145312  0.46783897
   0.01708949  0.99048204  0.39361135
   0.01470021  0.28419027  0.39108141
   0.00922656  0.11466737  0.57237931
   0.60807016  0.65670495  0.61130966
   0.21405659  0.47680412  0.50953787
   0.91506213  0.75556094  0.49625454
   0.52057854  0.11045563  0.42598659
   0.41838214  0.17084209  0.59049511
   0.08345253  0.13917208  0.40698087
   0.70189793  0.04484625  0.48732303
   0.66505935  0.89803746  0.43747644
   0.65009874  0.50402706  0.43015089
   0.19846065  0.91248223  0.46399069
   0.20659559  0.36612734  0.59969225
   0.67296904  0.81236738  0.59487727
   0.21656557  0.64194453  0.53853926
   0.36878912  0.73512773  0.45920930
   0.79689941  0.88774310  0.59546772
   0.87956000  0.91210030  0.51195974
   0.57629026  0.57434805  0.51195105
   0.58976662  0.11533614  0.52525430
   0.85812234  0.15211323  0.49517595
   0.83517257  0.60375524  0.64582360
   0.13373852  0.36031890  0.35687228
   0.79065529  0.27993925  0.44187265
   0.39917610  0.17749484  0.39600320
   0.85588687  0.74998501  0.59644723
   0.28244764  0.93547066  0.55022087
   0.02307473  0.33044751  0.50224551
   0.57455938  0.69549008  0.43556436
   0.23024095  0.75260050  0.45196954
   0.59362903  0.28388307  0.54812588
   0.97370335  0.27186359  0.60241013
   0.88890636  0.02540900  0.42420019
   0.10447695  0.19527790  0.51768965
   0.04814566  0.73303709  0.48263019
   0.23130475  0.20585878  0.56080940
   0.56140781  0.25778527  0.38122611
   0.47551462  0.62471553  0.62089341
   0.28125819  0.77092052  0.59771458
   0.20850083  0.64339984  0.37179454
   0.74028274  0.71018224  0.53584842
   0.98626117  0.99026668  0.55031784
   0.70310456  0.73681815  0.43426040
   0.78806724  0.05909499  0.57670755
   0.45631390  0.32845159  0.40928789
   0.44888770  0.93615000  0.59473183
   0.50781959  0.04134393  0.58586321
   0.24424715  0.37040632  0.42094710
   0.65852534  0.33000211  0.45034791
   0.46035402  0.31863531  0.52889033
   0.33729937  0.58994254  0.39908301
   0.80307769  0.47657255  0.57976390
   0.06920979  0.89885916  0.48050551
   0.21190758  0.14445432  0.37359659
   0.07823286  0.49398499  0.49468762
   0.55757019  0.85234010  0.47473025
   0.71793635  0.58458161  0.60966601
   0.28664212  0.21010174  0.45911077
   0.08805823  0.62544478  0.56759449
   0.35253724  0.01965819  0.58043490
   0.48567452  0.48209786  0.57125444
   0.46545571  0.47893817  0.69162767
Direct configuration=     2
   0.51777888  0.48329003  0.74770948
   0.42173535  0.51894388  0.77404734
   0.38161441  0.50670510  0.73556805
   0.43635315  0.59605892  0.79153987
   0.33952627  0.44280169  0.73733116
   0.76090234  0.10266306  0.65112076
   0.92642768  0.27866896  0.35633493
   0.79333970  0.20727890  0.37345652
   0.97453911  0.94360860  0.32530279
   0.62573266  0.96347285  0.37523120
   0.82053840  0.99500666  0.36899263
   0.74999307  0.14117876  0.45803819
   0.91584910  0.24947786  0.50721040
   0.58349286  0.30426355  0.30592717
   0.88946448  0.33399706  0.61506921
   0.58957033  0.36021732  0.61415658
   0.59329952  0.87075116  0.57821247
   0.02490120  0.33578547  0.65754936
   0.93527051  0.41951423  0.45410146
   0.74613838  0.53031199  0.42248819
   0.79718999  0.38217892  0.63443991
   0.59110202  0.56868283  0.37803474
   0.71843379  0.64593279  0.38346059
   0.84115291  0.54242660  0.41959617
   0.00476455  0.60379815  0.35777830
   0.82835870  0.71235667  0.46794226
   0.87619989  0.59952435  0.72148351
   0.51999031  0.98556476  0.42170307
   0.22309457  0.98015484  0.39320502
   0.21637369  0.23785146  0.31923033
   0.15750105  0.32980623  0.27898292
   0.34154688  0.15558571  0.33077276
   0.22271586  0.04575893  0.32273843
   0.51104903  0.82608314  0.54672011
   0.40611961  0.24795561  0.65530791
   0.24343679  0.09380631  0.59895719
   0.31538097  0.48713646  0.44243467
   0.40895618  0.43873486  0.40569060
   0.39849950  0.79311361  0.38878680
   0.24420236  0.65543008  0.29432688
   0.31174138  0.41847571  0.36925764
   0.40547429  0.58427965  0.33881989
   0.13935762  0.48797365  0.35192946
   0.59326935  0.69798713  0.35239799
   0.46900683  0.86142747  0.44382838
   0.11243432  0.32926377  0.61235997
   0.07134564  0.66648981  0.64508232
   0.24496195  0.35658230  0.67559940
   0.24511870  0.81725568  0.66840979
   0.52703915  0.43773171  0.77294626
   0.54059584  0.53472043  0.75474871
   0.42731885  0.47445164  0.80109978
   0.36655298  0.55642164  0.71653330
   0.47775659  0.59913819  0.81056004
   0.43565891  0.63512760  0.76035344
   0.40301107  0.61275010  0.81835110
   0.32502050  0.42764530  0.69990085
   0.35841634  0.39407623  0.75515542
   0.30166474  0.46024820  0.75880230
   0.36894173  0.64835510  0.43900002
   0.34681565  0.50403387  0.42038813
   0.86065927  0.56631691  0.69669539
   0.34820594  0.96035733  0.53181325
   0.03318114  0.93212287  0.52857633
   0.63635548  0.07886855  0.48937667
   0.06864615  0.05226542  0.39511073
   0.45189954  0.12956232  0.42059728
   0.80588415  0.21365018  0.48316661
   0.97319282  0.18112957  0.59878966
   0.27476529  0.29917287  0.44851223
   0.55635417  0.77509129  0.44175101
   0.39128400  0.97197815  0.62086820
   0.17751724  0.34996845  0.40527312
   0.86634279  0.68417483  0.63737225
   0.86569601  0.96717693  0.46703846
   0.30104714  0.76093683  0.45792526
   0.42161095  0.26125222  0.37959630
   0.81115850  0.46544485  0.52014196
   0.98343754  0.07238446  0.52114295
   0.50858942  0.46625593  0.62825868
   0.03453641  0.91994776  0.42940526
   0.96303654  0.30319531  0.35125762
   0.06962669  0.33610577  0.37637178
   0.20829566  0.72864429  0.39536010
   0.03890126  0.41910192  0.49910875
   0.23626488  0.28646144  0.58765435
   0.39584803  0.19818114  0.64524247
   0.45383218  0.56466556  0.57703999
   0.90973419  0.74903648  0.55747150
   0.86912727  0.10804334  0.44227833
   0.57257679  0.66733185  0.37613173
   0.14242656  0.15912550  0.37597224
   0.35033313  0.76601852  0.60674809
   0.91099605  0.84504757  0.48317962
   0.06133801  0.53687171  0.44225348
   0.70833903  0.55516655  0.41995768
   0.07548726  0.81680680  0.48299416
   0.70046477  0.82755571  0.43263529
   0.73028586  0.04924359  0.54295105
   0.91611137  0.29968485  0.63070149
   0.73469732  0.85166202  0.61306547
   0.62512195  0.52739400  0.48637871
   0.55657330  0.62970304  0.46724942
   0.42643269  0.24770853  0.55626517
   0.97829009  0.72824363  0.47679564
   0.65378335  0.59410254  0.63350922
   0.39665996  0.74665662  0.51537296
   0.60269007  0.51766545  0.38567099
   0.71985169  0.63041519  0.55693949
   0.13673717  0.36682939  0.59745222
   0.06614199  0.54861247  0.54190765
   0.81870275  0.88401109  0.53648291
   0.82821553  0.35538514  0.45190334
   0.52754004  0.29845066  0.53192278
   0.73675091  0.49903018  0.59574609
   0.55743394  0.17243111  0.39490854
   0.80596408  0.25641257  0.38329286
   0.23744622  0.95325075  0.50791956
   0.69235099  0.77512721  0.54175320
   0.92344644  0.94967677  0.55307584
   0.52573722  0.31778112  0.39855594
   0.46664294  0.99111433  0.54648645
   0.83786868  0.09479409  0.53983441
   0.53790325  0.11641749  0.48623709
   0.35019344  0.18660873  0.43963639
   0.01176032  0.96241390  0.33524376
   0.45227762  0.58548635  0.67206727
   0.65496522  0.92539750  0.37922825
   0.07629334  0.68602626  0.43588102
   0.45234123  0.40499966  0.55219956
   0.71921944  0.70042085  0.37958300
   0.45034641  0.70416965  0.60080686
   0.75255106  0.70932458  0.47629548
   0.77934888  0.12021500  0.62110098
   0.99327462  0.30801347  0.44840298
   0.53482698  0.50670246  0.53127694
   0.81677759  0.49906173  0.42344221
   0.23529532  0.14577261  0.60549583
   0.20353331  0.83070132  0.47053363
   0.24012426  0.55970001  0.52215490
   0.06115296  0.62546474  0.62374973
   0.04607407  0.60234669  0.35417863
   0.80040834  0.97802960  0.60537437
   0.53799091  0.02769749  0.40450275
   0.60556525  0.31259694  0.60508045
   0.86154611  0.00408085  0.36920633
   0.09491131  0.14902284  0.46708233
   0.17137013  0.20237148  0.53009008
   0.64098865  0.70443872  0.45481558
   0.43678778  0.40976848  0.38641325
   0.57358592  0.05812387  0.57086723
   0.15143775  0.59340802  0.38895836
   0.26773979  0.60233753  0.39230630
   0.44025846  0.32219818  0.47032443
   0.23800967  0.15851113  0.42990119
   0.07271848  0.14994168  0.56262722
   0.84485549  0.54426499  0.59977077
   0.62117943  0.27993988  0.41090545
   0.60266699  0.89152667  0.46722346
   0.03138539  0.19528983  0.38899188
   0.60764975  0.19529912  0.54759971
   0.13279973  0.93835464  0.47948708
   0.07961646  0.27946469  0.51094047
   0.37109687  0.10588382  0.57275648
   0.06666824  0.69707101  0.53574983
   0.66648838  0.41538488  0.43001156
   0.79925692  0.72936835  0.56411017
   0.70383856  0.95720843  0.47018456
   0.59745029  0.63369413  0.55332754
   0.72284030  0.29368465  0.45166811
   0.97768028  0.31415002  0.54739464
   0.15828959  0.62972432  0.57066561
   0.63333384  0.32678308  0.50780070
   0.81953993  0.39641587  0.60559507
   0.95857820  0.02724304  0.41695300
   0.28205131  0.19575973  0.51880578
   0.24925755  0.44303289  0.46105570
   0.27198314  0.85037706  0.56898033
   0.20366815  0.68557317  0.48688872
   0.14712345  0.47606988  0.49254493
   0.22643656  0.42665954  0.55803726
   0.91141698  0.45274460  0.47371881
   0.86978818  0.70456011  0.46415352
   0.73812021  0.09283462  0.44522965
   0.22218344  0.92978119  0.40794682
   0.23216808  0.39545324  0.65348327
   0.63045573  0.88268613  0.59354247
   0.41022327  0.78906239  0.42343739
   0.91777135  0.19603829  0.50824515
   0.13254706  0.44353611  0.33227266
   0.15514768  0.30352326  0.31056042
   0.37300515  0.13090704  0.34795342
   0.03118583  0.29372541  0.63583609
   0.57268926  0.25686819  0.32009968
   0.24534493  0.77113501  0.65008893
   0.20737430  0.64840505  0.31036906
   0.27537441  0.39219130  0.36737583
   0.36535081  0.59758663  0.34222079
   0.22638085  0.05618082  0.35811888
   0.24120333  0.19607823  0.32934297
   0.50127293  0.89230162  0.45484168
   0.55002123  0.82791403  0.53434338
   0.54361914  0.64531728  0.63453128
   0.47848487  0.12288204  0.59581749
   0.26220474  0.69474589  0.56872350
   0.44247688  0.84735082  0.58156219
   0.76524917  0.61697897  0.64946963
   0.84465802  0.83158864  0.62288858
   0.63856354  0.73896607  0.62127568
   0.00787162  0.03309168  0.60293530
   0.28344982  0.00196106  0.59501922
   0.50291018  0.97223471  0.62851147
   0.44157947  0.38837881  0.69425007
   0.08322528  0.60642030  0.40641308
   0.40923863  0.76522296  0.57482216
   0.84176382  0.44145312  0.46783897
   0.01708949  0.99048204  0.39361135
   0.01470021  0.28419027  0.39108141
   0.00922656  0.11466737  0.57237931
   0.60807016  0.65670495  0.61130966
   0.21405659  0.47680412  0.50953787
   0.91506213  0.75556094  0.49625454
   0.52057854  0.11045563  0.42598659
   0.41838214  0.17084209  0.59049511
   0.08345253  0.13917208  0.40698087
   0.70189793  0.04484625  0.48732303
   0.66505935  0.89803746  0.43747644
   0.65009874  0.50402706  0.43015089
   0.19846065  0.91248223  0.46399069
   0.20659559  0.36612734  0.59969225
   0.67296904  0.81236738  0.59487727
   0.21656557  0.64194453  0.53853926
   0.36878912  0.73512773  0.45920930
   0.79689941  0.88774310  0.59546772
   0.87956000  0.91210030  0.51195974
   0.57629026  0.57434805  0.51195105
   0.58976662  0.11533614  0.52525430
   0.85812234  0.15211323  0.49517595
   0.83517257  0.60375524  0.64582360
   0.13373852  0.36031890  0.35687228
   0.79065529  0.27993925  0.44187265
   0.39917610  0.17749484  0.39600320
   0.85588687  0.74998501  0.59644723
   0.28244764  0.93547066  0.55022087
   0.02307473  0.33044751  0.50224551
   0.57455938  0.69549008  0.43556436
   0.23024095  0.75260050  0.45196954
   0.59362903  0.28388307  0.54812588
   0.97370335  0.27186359  0.60241013
   0.88890636  0.02540900  0.42420019
   0.10447695  0.19527790  0.51768965
   0.04814566  0.73303709  0.48263019
   0.23130475  0.20585878  0.56080940
   0.56140781  0.25778527  0.38122611
   0.47551462  0.62471553  0.62089341
   0.28125819  0.77092052  0.59771458
   0.20850083  0.64339984  0.37179454
   0.74028274  0.71018224  0.53584842
   0.98626117  0.99026668  0.55031784
   0.70310456  0.73681815  0.43426040
   0.78806724  0.05909499  0.57670755
   0.45631390  0.32845159  0.40928789
   0.44888770  0.93615000  0.59473183
   0.50781959  0.04134393  0.58586321
   0.24424715  0.37040632  0.42094710
   0.65852534  0.33000211  0.45034791
   0.46035402  0.31863531  0.52889033
   0.33729937  0.58994254  0.39908301
   0.80307769  0.47657255  0.57976390
   0.06920979  0.89885916  0.48050551
   0.21190758  0.14445432  0.37359659
   0.07823286  0.49398499  0.49468762
   0.55757019  0.85234010  0.47473025
   0.71793635  0.58458161  0.60966601
   0.28664212  0.21010174  0.45911077
   0.08805823  0.62544478  0.56759449
   0.35253724  0.01965819  0.58043490
   0.48567452  0.48209786  0.57125444
   0.46545571  0.47893817  0.69162767
Direct configuration=     3
   0.51649745  0.48329003  0.74770948
   0.42173535  0.51894388  0.77404734
   0.38161441  0.50670510  0.73556805
   0.43635315  0.59605892  0.79153987
   0.33952627  0.44280169  0.73733116
   0.76090234  0.10266306  0.65112076
   0.92642768  0.27866896  0.35633493
   0.79333970  0.20727890  0.37345652
   0.97453911  0.94360860  0.32530279
   0.62573266  0.96347285  0.37523120
   0.82053840  0.99500666  0.36899263
   0.74999307  0.14117876  0.45803819
   0.91584910  0.24947786  0.50721040
   0.58349286  0.30426355  0.30592717
   0.88946448  0.33399706  0.61506921
   0.58957033  0.36021732  0.61415658
   0.59329952  0.87075116  0.57821247
   0.02490120  0.33578547  0.65754936
   0.93527051  0.41951423  0.45410146
   0.74613838  0.53031199  0.42248819
   0.79718999  0.38217892  0.63443991
   0.59110202  0.56868283  0.37803474
   0.71843379  0.64593279  0.38346059
   0.84115291  0.54242660  0.41959617
   0.00476455  0.60379815  0.35777830
   0.82835870  0.71235667  0.46794226
   0.87619989  0.59952435  0.72148351
   0.51999031  0.98556476  0.42170307
   0.22309457  0.98015484  0.39320502
   0.21637369  0.23785146  0.31923033
   0.15750105  0.32980623  0.27898292
   0.34154688  0.15558571  0.33077276
   0.22271586  0.04575893  0.32273843
   0.51104903  0.82608314  0.54672011
   0.40611961  0.24795561  0.65530791
   0.24343679  0.09380631  0.59895719
   0.31538097  0.48713646  0.44243467
   0.40895618  0.43873486  0.40569060
   0.39849950  0.79311361  0.38878680
   0.24420236  0.65543008  0.29432688
   0.31174138  0.41847571  0.36925764
   0.40547429  0.58427965  0.33881989
   0.13935762  0.48797365  0.35192946
   0.59326935  0.69798713  0.35239799
   0.46900683  0.86142747  0.44382838
   0.11243432  0.32926377  0.61235997
   0.07134564  0.66648981  0.64508232
   0.24496195  0.35658230  0.67559940
   0.24511870  0.81725568  0.66840979
   0.52703915  0.43773171  0.77294626
   0.54059584  0.53472043  0.75474871
   0.42731885  0.47445164  0.80109978
   0.36655298  0.55642164  0.71653330
   0.47775659  0.59913819  0.81056004
   0.43565891  0.63512760  0.76035344
   0.40301107  0.61275010  0.81835110
   0.32502050  0.42764530  0.69990085
   0.35841634  0.39407623  0.75515542
   0.30166474  0.46024820  0.75880230
   0.36894173  0.64835510  0.43900002
   0.34681565  0.50403387  0.42038813
   0.86065927  0.56631691  0.69669539
   0.34820594  0.96035733  0.53181325
   0.03318114  0.93212287  0.52857633
   0.63635548  0.07886855  0.48937667
   0.06864615  0.05226542  0.39511073
   0.45189954  0.12956232  0.42059728
   0.80588415  0.21365018  0.48316661
   0.97319282  0.18112957  0.59878966
   0.27476529  0.29917287  0.44851223
   0.55635417  0.77509129  0.44175101
   0.39128400  0.97197815  0.62086820
   0.17751724  0.34996845  0.40527312
   0.86634279  0.68417483  0.63737225
   0.86569601  0.96717693  0.46703846
   0.30104714  0.76093683  0.45792526
   0.42161095  0.26125222  0.37959630
   0.81115850  0.46544485  0.52014196
   0.98343754  0.07238446  0.52114295
   0.50858942  0.46625593  0.62825868
   0.03453641  0.91994776  0.42940526
   0.96303654  0.30319531  0.35125762
   0.06962669  0.33610577  0.37637178
   0.20829566  0.72864429  0.39536010
   0.03890126  0.41910192  0.49910875
   0.23626488  0.28646144  0.58765435
   0.39584803  0.19818114  0.64524247
   0.45383218  0.56466556  0.57703999
   0.90973419  0.74903648  0.55747150
   0.86912727  0.10804334  0.44227833
   0.57257679  0.66733185  0.37613173
   0.14242656  0.15912550  0.37597224
   0.35033313  0.76601852  0.60674809
   0.91099605  0.84504757  0.48317962
   0.06133801  0.53687171  0.44225348
   0.70833903  0.55516655  0.41995768
   0.07548726  0.81680680  0.48299416
   0.70046477  0.82755571  0.43263529
   0.73028586  0.04924359  0.54295105
   0.91611137  0.29968485  0.63070149
   0.73469732  0.85166202  0.61306547
   0.62512195  0.52739400  0.48637871
   0.55657330  0.62970304  0.46724942
   0.42643269  0.24770853  0.55626517
   0.97829009  0.72824363  0.47679564
   0.65378335  0.59410254  0.63350922
   0.39665996  0.74665662  0.51537296
   0.60269007  0.51766545  0.38567099
   0.71985169  0.63041519  0.55693949
   0.13673717  0.36682939  0.59745222
   0.06614199  0.54861247  0.54190765
   0.81870275  0.88401109  0.53648291
   0.82821553  0.35538514  0.45190334
   0.52754004  0.29845066  0.53192278
   0.73675091  0.49903018  0.59574609
   0.55743394  0.17243111  0.39490854
   0.80596408  0.25641257  0.38329286
   0.23744622  0.95325075  0.50791956
   0.69235099  0.77512721  0.54175320
   0.92344644  0.94967677  0.55307584
   0.52573722  0.31778112  0.39855594
   0.46664294  0.99111433  0.54648645
   0.83786868  0.09479409  0.53983441
   0.53790325  0.11641749  0.48623709
   0.35019344  0.18660873  0.43963639
   0.01176032  0.96241390  0.33524376
   0.45227762  0.58548635  0.67206727
   0.65496522  0.92539750  0.37922825
   0.07629334  0.68602626  0.43588102
   0.45234123  0.40499966  0.55219956
   0.71921944  0.70042085  0.37958300
   0.45034641  0.70416965  0.60080686
   0.75255106  0.70932458  0.47629548
   0.77934888  0.12021500  0.62110098
   0.99327462  0.30801347  0.44840298
   0.53482698  0.50670246  0.53127694
   0.81677759  0.49906173  0.42344221
   0.23529532  0.14577261  0.60549583
   0.20353331  0.83070132  0.47053363
   0.24012426  0.55970001  0.52215490
   0.06115296  0.62546474  0.62374973
   0.04607407  0.60234669  0.35417863
   0.80040834  0.97802960  0.60537437
   0.53799091  0.02769749  0.40450275
   0.60556525  0.31259694  0.60508045
   0.86154611  0.00408085  0.36920633
   0.09491131  0.14902284  0.46708233
   0.17137013  0.20237148  0.53009008
   0.64098865  0.70443872  0.45481558
   0.43678778  0.40976848  0.38641325
   0.57358592  0.05812387  0.57086723
   0.15143775  0.59340802  0.38895836
   0.26773979  0.60233753  0.39230630
   0.44025846  0.32219818  0.47032443
   0.23800967  0.15851113  0.42990119
   0.07271848  0.14994168  0.56262722
   0.84485549  0.54426499  0.59977077
   0.62117943  0.27993988  0.41090545
   0.60266699  0.89152667  0.46722346
   0.03138539  0.19528983  0.38899188
   0.60764975  0.19529912  0.54759971
   0.13279973  0.93835464  0.47948708
   0.07961646  0.27946469  0.51094047
   0.37109687  0.10588382  0.57275648
   0.06666824  0.69707101  0.53574983
   0.66648838  0.41538488  0.43001156
   0.79925692  0.72936835  0.56411017
   0.70383856  0.95720843  0.47018456
   0.59745029  0.63369413  0.55332754
   0.72284030  0.29368465  0.45166811
   0.97768028  0.31415002  0.54739464
   0.15828959  0.62972432  0.57066561
   0.63333384  0.32678308  0.50780070
   0.81953993  0.39641587  0.60559507
   0.95857820  0.02724304  0.41695300
   0.28205131  0.19575973  0.51880578
   0.24925755  0.44303289  0.46105570
   0.27198314  0.85037706  0.56898033
   0.20366815  0.68557317  0.48688872
   0.14712345  0.47606988  0.49254493
   0.22643656  0.42665954  0.55803726
   0.91141698  0.45274460  0.47371881
   0.86978818  0.70456011  0.46415352
   0.73812021  0.09283462  0.44522965
   0.22218344  0.92978119  0.40794682
   0.23216808  0.39545324  0.65348327
   0.63045573  0.88268613  0.59354247
   0.41022327  0.78906239  0.42343739
   0.91777135  0.19603829  0.50824515
   0.13254706  0.44353611  0.33227266
   0.15514768  0.30352326  0.31056042
   0.37300515  0.13090704  0.34795342
   0.03118583  0.29372541  0.63583609
   0.57268926  0.25686819  0.32009968
   0.24534493  0.77113501  0.65008893
   0.20737430  0.64840505  0.31036906
   0.27537441  0.39219130  0.36737583
   0.36535081  0.59758663  0.34222079
   0.22638085  0.05618082  0.35811888
   0.24120333  0.19607823  0.32934297
   0.50127293  0.89230162  0.45484168
   0.55002123  0.82791403  0.53434338
   0.54361914  0.64531728  0.63453128
   0.47848487  0.12288204  0.59581749
   0.26220474  0.69474589  0.56872350
   0.44247688  0.84735082  0.58156219
   0.76524917  0.61697897  0.64946963
   0.84465802  0.83158864  0.62288858
   0.63856354  0.73896607  0.62127568
   0.00787162  0.03309168  0.60293530
   0.28344982  0.00196106  0.59501922
   0.50291018  0.97223471  0.62851147
   0.44157947  0.38837881  0.69425007
   0.08322528  0.60642030  0.40641308
   0.40923863  0.76522296  0.57482216
   0.84176382  0.44145312  0.46783897
   0.01708949  0.99048204  0.39361135
   0.01470021  0.28419027  0.39108141
   0.00922656  0.11466737  0.57237931
   0.60807016  0.65670495  0.61130966
   0.21405659  0.47680412  0.50953787
   0.91506213  0.75556094  0.49625454
   0.52057854  0.11045563  0.42598659