 vasp.5.4.4.18Apr17-6-g9f103f2a35 (build Oct 20 2021 08:33:53) complex           
 executed on             LinuxGNU date 2024.05.30  11:30:17
 running on   32 total cores
 distrk:  each k-point on   32 cores,    1 groups
 distr:  one band on NCORES_PER_BAND=   4 cores,    8 groups


--------------------------------------------------------------------------------------------------------


 INCAR:
 POTCAR:    PAW_PBE C 08Apr2002                   
 POTCAR:    PAW_PBE H 15Jun2001                   
 POTCAR:    PAW_PBE O 08Apr2002                   
 POTCAR:    PAW_PBE Si 05Jan2001                  
 POTCAR:    PAW_PBE W 08Apr2002                   
 POTCAR:    PAW_PBE C 08Apr2002                   
   VRHFIN =C: s2p2                                                              
   LEXCH  = PE                                                                  
   EATOM  =   147.1560 eV,   10.8157 Ry                                         
                                                                                
   TITEL  = PAW_PBE C 08Apr2002                                                 
   LULTRA =        F    use ultrasoft PP ?                                      
   IUNSCR =        1    unscreen: 0-lin 1-nonlin 2-no                           
   RPACOR =    1.200    partial core radius                                     
   POMASS =   12.011; ZVAL   =    4.000    mass and valenz                      
   RCORE  =    1.500    outmost cutoff radius                                   
   RWIGS  =    1.630; RWIGS  =    0.863    wigner-seitz radius (au A)           
   ENMAX  =  400.000; ENMIN  =  300.000 eV                                      
   ICORE  =        2    local potential                                         
   LCOR   =        T    correct aug charges                                     
   LPAW   =        T    paw PP                                                  
   EAUG   =  644.873                                                            
   DEXC   =    0.000                                                            
   RMAX   =    1.529    core radius for proj-oper                               
   RAUG   =    1.300    factor for augmentation sphere                          
   RDEP   =    1.501    radius for radial grids                                 
   RDEPT  =    1.300    core radius for aug-charge                              
                                                                                
   Atomic configuration                                                         
    4 entries                                                                   
     n  l   j            E        occ.                                          
     1  0  0.50      -273.3789   2.0000                                         
     2  0  0.50       -13.7508   2.0000                                         
     2  1  0.50        -5.2854   2.0000                                         
     3  2  1.50        -5.4423   0.0000                                         
   Description                                                                  
     l       E           TYP  RCUT    TYP  RCUT                                 
     0    -13.7508458     23  1.200                                             
     0     -8.2022199     23  1.200                                             
     1     -5.2854383     23  1.500                                             
     1     34.0145650     23  1.500                                             
     2     -5.4423304      7  1.500                                             
  local pseudopotential read in
  partial core-charges read in
  partial kinetic energy density read in
  atomic valenz-charges read in
  non local Contribution for L=           0  read in
    real space projection operators read in
  non local Contribution for L=           0  read in
    real space projection operators read in
  non local Contribution for L=           1  read in
    real space projection operators read in
  non local Contribution for L=           1  read in
    real space projection operators read in
    PAW grid and wavefunctions read in

   number of l-projection  operators is LMAX  =           4
   number of lm-projection operators is LMMAX =           8

 POTCAR:    PAW_PBE H 15Jun2001                   
   VRHFIN =H: ultrasoft test                                                    
   LEXCH  = PE                                                                  
   EATOM  =    12.4884 eV,    0.9179 Ry                                         
                                                                                
   TITEL  = PAW_PBE H 15Jun2001                                                 
   LULTRA =        F    use ultrasoft PP ?                                      
   IUNSCR =        0    unscreen: 0-lin 1-nonlin 2-no                           
   RPACOR =    0.000    partial core radius                                     
   POMASS =    1.000; ZVAL   =    1.000    mass and valenz                      
   RCORE  =    1.100    outmost cutoff radius                                   
   RWIGS  =    0.700; RWIGS  =    0.370    wigner-seitz radius (au A)           
   ENMAX  =  250.000; ENMIN  =  200.000 eV                                      
   RCLOC  =    0.701    cutoff for local pot                                    
   LCOR   =        T    correct aug charges                                     
   LPAW   =        T    paw PP                                                  
   EAUG   =  400.000                                                            
   RMAX   =    1.123    core radius for proj-oper                               
   RAUG   =    1.200    factor for augmentation sphere                          
   RDEP   =    1.112    radius for radial grids                                 
   RDEPT  =    0.926    core radius for aug-charge                              
                                                                                
   Atomic configuration                                                         
    2 entries                                                                   
     n  l   j            E        occ.                                          
     1  0  0.50        -6.4927   1.0000                                         
     2  1  0.50        -3.4015   0.0000                                         
   Description                                                                  
     l       E           TYP  RCUT    TYP  RCUT                                 
     0     -6.4927494     23  1.100                                             
     0      6.8029130     23  1.100                                             
     1     -4.0817478     23  1.100                                             
  local pseudopotential read in
  atomic valenz-charges read in
  non local Contribution for L=           0  read in
    real space projection operators read in
  non local Contribution for L=           0  read in
    real space projection operators read in
  non local Contribution for L=           1  read in
    real space projection operators read in
    PAW grid and wavefunctions read in

   number of l-projection  operators is LMAX  =           3
   number of lm-projection operators is LMMAX =           5

 POTCAR:    PAW_PBE O 08Apr2002                   
   VRHFIN =O: s2p4                                                              
   LEXCH  = PE                                                                  
   EATOM  =   432.3788 eV,   31.7789 Ry                                         
                                                                                
   TITEL  = PAW_PBE O 08Apr2002                                                 
   LULTRA =        F    use ultrasoft PP ?                                      
   IUNSCR =        1    unscreen: 0-lin 1-nonlin 2-no                           
   RPACOR =    1.200    partial core radius                                     
   POMASS =   16.000; ZVAL   =    6.000    mass and valenz                      
   RCORE  =    1.520    outmost cutoff radius                                   
   RWIGS  =    1.550; RWIGS  =    0.820    wigner-seitz radius (au A)           
   ENMAX  =  400.000; ENMIN  =  300.000 eV                                      
   ICORE  =        2    local potential                                         
   LCOR   =        T    correct aug charges                                     
   LPAW   =        T    paw PP                                                  
   EAUG   =  605.392                                                            
   DEXC   =    0.000                                                            
   RMAX   =    1.553    core radius for proj-oper                               
   RAUG   =    1.300    factor for augmentation sphere                          
   RDEP   =    1.550    radius for radial grids                                 
   RDEPT  =    1.329    core radius for aug-charge                              
                                                                                
   Atomic configuration                                                         
    4 entries                                                                   
     n  l   j            E        occ.                                          
     1  0  0.50      -514.6923   2.0000                                         
     2  0  0.50       -23.9615   2.0000                                         
     2  1  0.50        -9.0305   4.0000                                         
     3  2  1.50        -9.5241   0.0000                                         
   Description                                                                  
     l       E           TYP  RCUT    TYP  RCUT                                 
     0    -23.9615318     23  1.200                                             
     0     -9.5240782     23  1.200                                             
     1     -9.0304911     23  1.520                                             
     1      8.1634956     23  1.520                                             
     2     -9.5240782      7  1.500                                             
  local pseudopotential read in
  partial core-charges read in
  partial kinetic energy density read in
  kinetic energy density of atom read in
  atomic valenz-charges read in
  non local Contribution for L=           0  read in
    real space projection operators read in
  non local Contribution for L=           0  read in
    real space projection operators read in
  non local Contribution for L=           1  read in
    real space projection operators read in
  non local Contribution for L=           1  read in
    real space projection operators read in
    PAW grid and wavefunctions read in

   number of l-projection  operators is LMAX  =           4
   number of lm-projection operators is LMMAX =           8

 POTCAR:    PAW_PBE Si 05Jan2001                  
   VRHFIN =Si: s2p2                                                             
   LEXCH  = PE                                                                  
   EATOM  =   103.0669 eV,    7.5752 Ry                                         
                                                                                
   TITEL  = PAW_PBE Si 05Jan2001                                                
   LULTRA =        F    use ultrasoft PP ?                                      
   IUNSCR =        1    unscreen: 0-lin 1-nonlin 2-no                           
   RPACOR =    1.500    partial core radius                                     
   POMASS =   28.085; ZVAL   =    4.000    mass and valenz                      
   RCORE  =    1.900    outmost cutoff radius                                   
   RWIGS  =    2.480; RWIGS  =    1.312    wigner-seitz radius (au A)           
   ENMAX  =  245.345; ENMIN  =  184.009 eV                                      
   ICORE  =        2    local potential                                         
   LCOR   =        T    correct aug charges                                     
   LPAW   =        T    paw PP                                                  
   EAUG   =  322.069                                                            
   DEXC   =    0.000                                                            
   RMAX   =    1.950    core radius for proj-oper                               
   RAUG   =    1.300    factor for augmentation sphere                          
   RDEP   =    1.993    radius for radial grids                                 
   RDEPT  =    1.837    core radius for aug-charge                              
                                                                                
   Atomic configuration                                                         
    6 entries                                                                   
     n  l   j            E        occ.                                          
     1  0  0.50     -1785.8828   2.0000                                         
     2  0  0.50      -139.4969   2.0000                                         
     2  1  1.50       -95.5546   6.0000                                         
     3  0  0.50       -10.8127   2.0000                                         
     3  1  0.50        -4.0811   2.0000                                         
     3  2  1.50        -4.0817   0.0000                                         
   Description                                                                  
     l       E           TYP  RCUT    TYP  RCUT                                 
     0    -10.8127223     23  1.900                                             
     0     -7.6451159     23  1.900                                             
     1     -4.0811372     23  1.900                                             
     1      2.4879257     23  1.900                                             
     2     -4.0817478      7  1.900                                             
  local pseudopotential read in
  partial core-charges read in
  partial kinetic energy density read in
  atomic valenz-charges read in
  non local Contribution for L=           0  read in
    real space projection operators read in
  non local Contribution for L=           0  read in
    real space projection operators read in
  non local Contribution for L=           1  read in
    real space projection operators read in
  non local Contribution for L=           1  read in
    real space projection operators read in
    PAW grid and wavefunctions read in

   number of l-projection  operators is LMAX  =           4
   number of lm-projection operators is LMMAX =           8

 POTCAR:    PAW_PBE W 08Apr2002                   
   VRHFIN =W : 6s5d                                                             
   LEXCH  = PE                                                                  
   EATOM  =   204.6103 eV,   15.0384 Ry                                         
                                                                                
   TITEL  = PAW_PBE W 08Apr2002                                                 
   LULTRA =        F    use ultrasoft PP ?                                      
   IUNSCR =        1    unscreen: 0-lin 1-nonlin 2-no                           
   RPACOR =    2.330    partial core radius                                     
   POMASS =  183.850; ZVAL   =    6.000    mass and valenz                      
   RCORE  =    2.750    outmost cutoff radius                                   
   RWIGS  =    2.750; RWIGS  =    1.455    wigner-seitz radius (au A)           
   ENMAX  =  223.057; ENMIN  =  167.293 eV                                      
   RCLOC  =    2.147    cutoff for local pot                                    
   LCOR   =        T    correct aug charges                                     
   LPAW   =        T    paw PP                                                  
   EAUG   =  373.438                                                            
   DEXC   =    0.000                                                            
   RMAX   =    2.801    core radius for proj-oper                               
   RAUG   =    1.300    factor for augmentation sphere                          
   RDEP   =    2.886    radius for radial grids                                 
   RDEPT  =    2.230    core radius for aug-charge                              
                                                                                
   Atomic configuration                                                         
   16 entries                                                                   
     n  l   j            E        occ.                                          
     1  0  0.50    -69465.5836   2.0000                                         
     2  0  0.50    -11986.2642   2.0000                                         
     2  1  1.50    -10479.8616   6.0000                                         
     3  0  0.50     -2759.0758   2.0000                                         
     3  1  1.50     -2313.1857   6.0000                                         
     3  2  2.50     -1801.1185  10.0000                                         
     4  0  0.50      -567.6791   2.0000                                         
     4  1  1.50      -421.4694   6.0000                                         
     4  2  2.50      -236.3473  10.0000                                         
     4  3  3.50       -31.2666  14.0000                                         
     5  0  0.50       -77.1085   2.0000                                         
     5  1  1.50       -41.3856   6.0000                                         
     5  2  2.50        -3.3185   5.0000                                         
     6  0  0.50        -5.1438   1.0000                                         
     6  1  0.50        -3.8096   0.0000                                         
     5  3  2.50        -1.3606   0.0000                                         
   Description                                                                  
     l       E           TYP  RCUT    TYP  RCUT                                 
     2     -3.3185288     23  2.500                                             
     2     -1.5965414     23  2.500                                             
     0     -5.1438054     23  2.500                                             
     0      4.9117504     23  2.500                                             
     1      2.7211652     23  2.750                                             
     1     27.2116520     23  2.750                                             
  local pseudopotential read in
  partial core-charges read in
  partial kinetic energy density read in
  atomic valenz-charges read in
  non local Contribution for L=           2  read in
    real space projection operators read in
  non local Contribution for L=           2  read in
    real space projection operators read in
  non local Contribution for L=           0  read in
    real space projection operators read in
  non local Contribution for L=           0  read in
    real space projection operators read in
  non local Contribution for L=           1  read in
    real space projection operators read in
  non local Contribution for L=           1  read in
    real space projection operators read in
    PAW grid and wavefunctions read in

   number of l-projection  operators is LMAX  =           6
   number of lm-projection operators is LMMAX =          18

 Optimization of the real space projectors (new method)

 maximal supplied QI-value         = 25.13
 optimisation between [QCUT,QGAM] = [ 11.31, 22.87] = [ 35.82,146.48] Ry 
 Optimized for a Real-space Cutoff    1.00 Angstroem

   l    n(q)    QCUT    max X(q) W(low)/X(q) W(high)/X(q)  e(spline) 
   0      7    11.310   115.676    0.43E-03    0.13E-02    0.19E-06
   0      7    11.310    87.132    0.43E-03    0.13E-02    0.18E-06
   1      6    11.310     4.429    0.42E-03    0.74E-03    0.11E-06
   1      6    11.310     2.733    0.34E-03    0.55E-03    0.92E-07
 Optimization of the real space projectors (new method)

 maximal supplied QI-value         = 34.20
 optimisation between [QCUT,QGAM] = [ 11.29, 22.57] = [ 35.68,142.71] Ry 
 Optimized for a Real-space Cutoff    1.16 Angstroem

   l    n(q)    QCUT    max X(q) W(low)/X(q) W(high)/X(q)  e(spline) 
   0      8    11.287    19.460    0.40E-03    0.73E-03    0.16E-06
   0      8    11.287    12.209    0.38E-03    0.70E-03    0.15E-06
   1      7    11.287     4.655    0.22E-03    0.25E-04    0.22E-06
 Optimization of the real space projectors (new method)

 maximal supplied QI-value         = 24.76
 optimisation between [QCUT,QGAM] = [ 11.39, 22.77] = [ 36.31,145.25] Ry 
 Optimized for a Real-space Cutoff    1.00 Angstroem

   l    n(q)    QCUT    max X(q) W(low)/X(q) W(high)/X(q)  e(spline) 
   0      7    11.387    20.381    0.39E-03    0.13E-02    0.15E-06
   0      7    11.387    15.268    0.42E-03    0.14E-02    0.17E-06
   1      6    11.387     5.964    0.41E-03    0.11E-02    0.17E-06
   1      6    11.387     5.382    0.39E-03    0.87E-03    0.15E-06
 Optimization of the real space projectors (new method)

 maximal supplied QI-value         = 19.84
 optimisation between [QCUT,QGAM] = [ 11.31, 22.82] = [ 35.82,145.81] Ry 
 Optimized for a Real-space Cutoff    1.16 Angstroem

   l    n(q)    QCUT    max X(q) W(low)/X(q) W(high)/X(q)  e(spline) 
   0      8    11.310   159.560    0.27E-03    0.30E-03    0.39E-07
   0      8    11.310   115.863    0.27E-03    0.30E-03    0.38E-07
   1      7    11.310    88.339    0.28E-03    0.28E-03    0.77E-07
   1      7    11.310    48.592    0.27E-03    0.27E-03    0.74E-07
 Optimization of the real space projectors (new method)

 maximal supplied QI-value         = 13.61
 optimisation between [QCUT,QGAM] = [ 11.43, 22.86] = [ 36.58,146.31] Ry 
 Optimized for a Real-space Cutoff    1.56 Angstroem

   l    n(q)    QCUT    max X(q) W(low)/X(q) W(high)/X(q)  e(spline) 
   2     10    11.429   130.855    0.22E-03    0.64E-03    0.11E-05
   2     10    11.429   114.007    0.22E-03    0.64E-03    0.11E-05
   0     11    11.429    84.709    0.39E-04    0.67E-04    0.23E-06
   0     11    11.429    49.163    0.35E-04    0.62E-04    0.21E-06
   1     10    11.429    15.765    0.84E-04    0.15E-03    0.24E-06
   1     10    11.429    10.638    0.58E-04    0.12E-03    0.19E-06

 ----------------------------------------------------------------------------- 
|                                                                             |
|  ADVICE TO THIS USER RUNNING 'VASP/VAMP'   (HEAR YOUR MASTER'S VOICE ...):  |
|                                                                             |
|      You enforced a specific xc-type in the INCAR file,                     |
|      a different type was found on the POTCAR file                          |
|          I HOPE YOU KNOW, WHAT YOU ARE  DOING                               |
|                                                                             |
 ----------------------------------------------------------------------------- 

  PAW_PBE C 08Apr2002                   :
 energy of atom  1       EATOM= -147.1560
 kinetic energy error for atom=    0.0076 (will be added to EATOM!!)
  PAW_PBE H 15Jun2001                   :
 energy of atom  2       EATOM=  -12.4884
 kinetic energy error for atom=    0.0020 (will be added to EATOM!!)
  PAW_PBE O 08Apr2002                   :
 energy of atom  3       EATOM= -432.3788
 kinetic energy error for atom=    0.0224 (will be added to EATOM!!)
  PAW_PBE Si 05Jan2001                  :
 energy of atom  4       EATOM= -103.0669
 kinetic energy error for atom=    0.0006 (will be added to EATOM!!)
  PAW_PBE W 08Apr2002                   :
 energy of atom  5       EATOM= -204.6103
 kinetic energy error for atom=    0.0017 (will be added to EATOM!!)


 POSCAR:  C  H  O Si  W                          
  positions in direct lattice
  velocities in cartesian coordinates
 exchange correlation table for  LEXCH =        9
   RHO(1)=    0.500       N(1)  =     2000
   RHO(2)=  100.500       N(2)  =     4000

 VTST: version 3.2, (02/03/18)

 CHAIN: initializing optimizer
 
 OPT: Using VASP QUASI-newton optimizer
 CHAIN: Read ICHAIN            0

 POSCAR:  C  H  O Si  W                          
  positions in direct lattice
  velocities in cartesian coordinates



--------------------------------------------------------------------------------------------------------


 ion  position               nearest neighbor table
   1  0.484  0.604  0.784-  49 1.10   2 1.37   3 1.51
   2  0.522  0.552  0.800-  50 1.10   1 1.37   4 1.50
   3  0.500  0.684  0.779-  53 1.10  52 1.10  51 1.10   1 1.51
   4  0.510  0.474  0.815-  55 1.10  56 1.10  54 1.11   2 1.50
   5  0.762  0.159  0.651- 131 0.97
   6  0.926  0.334  0.356-  79 0.98
   7  0.793  0.262  0.373- 114 0.97
   8  0.975  0.999  0.325- 123 0.97
   9  0.626  0.019  0.375- 125 0.98
  10  0.821  0.050  0.369- 143 0.97
  11  0.750  0.196  0.458- 181 0.98
  12  0.915  0.305  0.510- 186 0.97
  13  0.583  0.359  0.306- 191 0.97
  14  0.892  0.390  0.616-  97 0.98
  15  0.593  0.416  0.614- 142 0.97
  16  0.594  0.927  0.578- 184 0.99
  17  0.034  0.394  0.652- 190 0.97
  18  0.935  0.475  0.454- 179 0.98
  19  0.746  0.585  0.422-  93 1.00
  20  0.800  0.440  0.636- 171 0.97
  21  0.591  0.624  0.378- 105 0.99
  22  0.718  0.701  0.383- 128 0.99
  23  0.841  0.598  0.420- 134 0.98
  24  0.005  0.659  0.358- 139 0.97
  25  0.828  0.768  0.468- 180 0.99
  26  0.872  0.651  0.723-  59 0.97
  27  0.520  0.041  0.422- 141 0.99
  28  0.223  0.035  0.393- 182 1.00
  29  0.216  0.293  0.319- 197 0.99
  30  0.158  0.385  0.279- 188 0.97
  31  0.342  0.211  0.331- 189 0.98
  32  0.223  0.101  0.323- 196 0.97
  33  0.512  0.879  0.547- 199 0.97
  34  0.382  0.297  0.647-  84 0.97
  35  0.245  0.148  0.598- 135 0.98
  36  0.315  0.542  0.442-  58 0.99
  37  0.409  0.494  0.406- 147 0.98
  38  0.398  0.848  0.389- 185 0.97
  39  0.244  0.711  0.294- 193 0.97
  40  0.312  0.474  0.369- 194 0.98
  41  0.405  0.639  0.339- 195 0.97
  42  0.139  0.543  0.352- 187 0.98
  43  0.593  0.753  0.352-  88 0.97
  44  0.469  0.917  0.444- 198 0.99
  45  0.121  0.379  0.612- 107 0.97
  46  0.073  0.720  0.646- 138 0.97
  47  0.243  0.440  0.682- 183 0.97
  48  0.245  0.871  0.669- 192 0.97
  49  0.439  0.590  0.783-   1 1.10
  50  0.567  0.568  0.802-   2 1.10
  51  0.488  0.714  0.814-   3 1.10
  52  0.546  0.691  0.774-   3 1.10
  53  0.477  0.711  0.748-   3 1.10
  54  0.521  0.468  0.855-   4 1.11
  55  0.465  0.459  0.810-   4 1.10
  56  0.537  0.435  0.795-   4 1.10
  57  0.369  0.704  0.439- 231 1.66 266 1.68
  58  0.347  0.559  0.420-  36 0.99 266 1.67
  59  0.862  0.620  0.695-  26 0.97 237 1.64
  60  0.349  0.011  0.530- 242 1.68 275 1.69
  61  0.033  0.987  0.528- 257 1.63 268 1.66
  62  0.636  0.134  0.489- 235 1.60 224 1.65
  63  0.069  0.107  0.395- 223 1.64 215 1.65
  64  0.452  0.185  0.421- 240 1.65 221 1.65
  65  0.806  0.269  0.483- 239 1.67 236 1.69
  66  0.974  0.237  0.599- 217 1.63 247 1.65
  67  0.275  0.354  0.449- 263 1.65 273 1.66
  68  0.556  0.830  0.442- 244 1.51 271 1.66
  69  0.393  0.024  0.619- 261 1.65 275 1.66
  70  0.178  0.405  0.405- 263 1.66 238 1.67
  71  0.867  0.740  0.638- 241 1.64 237 1.65
  72  0.866  0.022  0.467- 233 1.60 248 1.65
  73  0.301  0.816  0.458- 231 1.65 245 1.67
  74  0.422  0.316  0.380- 240 1.67 260 1.67
  75  0.811  0.520  0.520- 267 1.63 214 1.64
  76  0.984  0.128  0.521- 257 1.68 217 1.69
  77  0.518  0.515  0.623- 276 1.66 277 1.93
  78  0.035  0.975  0.429- 268 1.64 215 1.65
  79  0.963  0.358  0.351-   6 0.98 216 1.65
  80  0.070  0.391  0.376- 216 1.64 238 1.65
  81  0.208  0.784  0.395- 245 1.66 255 1.67
  82  0.039  0.474  0.499- 270 1.64 243 1.65
  83  0.239  0.341  0.588- 251 1.63 228 1.63
  84  0.396  0.247  0.643-  34 0.97 222 1.64
  85  0.455  0.616  0.581- 276 1.67 253 1.68
  86  0.910  0.805  0.558- 241 1.64 220 1.65
  87  0.869  0.163  0.442- 248 1.64 236 1.65
  88  0.573  0.723  0.376-  43 0.97 244 1.68
  89  0.142  0.214  0.376- 269 1.65 223 1.65
  90  0.350  0.822  0.607- 213 1.62 254 1.64
  91  0.911  0.900  0.483- 233 1.62 220 1.66
  92  0.061  0.592  0.442- 270 1.66 212 1.67
  93  0.708  0.610  0.420-  19 1.00 226 1.67
  94  0.075  0.872  0.483- 268 1.50 250 1.65
  95  0.700  0.883  0.433- 225 1.53 258 1.65
  96  0.730  0.105  0.543- 224 1.64 259 1.64
  97  0.919  0.356  0.632-  14 0.98 247 1.63
  98  0.735  0.908  0.613- 232 1.66 229 1.68
  99  0.625  0.583  0.486- 234 1.58 226 1.68
 100  0.557  0.685  0.467- 244 1.52 234 1.62
 101  0.426  0.300  0.555- 265 1.68 222 1.68
 102  0.978  0.783  0.477- 250 1.65 220 1.65
 103  0.654  0.650  0.634- 272 1.64 218 1.66
 104  0.397  0.800  0.516- 213 1.67 231 1.67
 105  0.603  0.573  0.386-  21 0.99 226 1.65
 106  0.720  0.687  0.557- 256 1.62 272 1.65
 107  0.146  0.420  0.619-  45 0.97 228 1.64
 108  0.066  0.603  0.542- 270 1.63 274 1.64
 109  0.818  0.940  0.536- 233 1.65 232 1.67
 110  0.828  0.411  0.452- 239 1.65 214 1.65
 111  0.528  0.353  0.532- 265 1.61 246 1.63
 112  0.737  0.555  0.596- 272 1.65 267 1.66
 113  0.557  0.228  0.395- 252 1.59 221 1.64
 114  0.806  0.312  0.383-   7 0.97 239 1.67
 115  0.237  0.008  0.508- 242 1.58 227 1.67
 116  0.693  0.832  0.541- 256 1.64 229 1.64
 117  0.923  0.005  0.553- 257 1.65 233 1.65
 118  0.526  0.373  0.399- 252 1.45 260 1.66
 119  0.469  0.042  0.546- 261 1.69 262 1.70
 120  0.838  0.150  0.540- 236 1.65 259 1.66
 121  0.538  0.172  0.486- 235 1.61 221 1.67
 122  0.350  0.242  0.440- 273 1.63 240 1.65
 123  0.012  0.018  0.335-   8 0.97 215 1.65
 124  0.465  0.633  0.676- 253 1.66 277 1.99
 125  0.655  0.981  0.379-   9 0.98 225 1.66
 126  0.076  0.741  0.436- 212 1.65 250 1.66
 127  0.452  0.458  0.553- 276 1.67 265 1.70
 128  0.719  0.756  0.380-  22 0.99 258 1.65
 129  0.447  0.754  0.604- 213 1.63 253 1.65
 130  0.753  0.765  0.476- 256 1.63 258 1.69
 131  0.780  0.176  0.621-   5 0.97 259 1.64
 132  0.993  0.363  0.448- 243 1.66 216 1.68
 133  0.531  0.563  0.527- 276 1.64 234 1.65
 134  0.817  0.554  0.423-  23 0.98 214 1.69
 135  0.236  0.199  0.605-  35 0.98 251 1.62
 136  0.204  0.886  0.471- 227 1.50 245 1.63
 137  0.240  0.614  0.523- 230 1.65 219 1.66
 138  0.061  0.680  0.624-  46 0.97 274 1.63
 139  0.046  0.658  0.354-  24 0.97 212 1.65
 140  0.801  0.034  0.605- 232 1.66 259 1.68
 141  0.538  0.083  0.405-  27 0.99 221 1.66
 142  0.606  0.367  0.605-  15 0.97 246 1.63
 143  0.862  0.059  0.369-  10 0.97 248 1.66
 144  0.095  0.204  0.467- 249 1.62 223 1.65
 145  0.172  0.259  0.531- 249 1.61 251 1.63
 146  0.641  0.760  0.455- 244 1.65 258 1.66
 147  0.437  0.465  0.386-  37 0.98 260 1.66
 148  0.574  0.112  0.571- 262 1.62 235 1.65
 149  0.151  0.649  0.389- 255 1.68 212 1.68
 150  0.268  0.658  0.392- 266 1.65 255 1.67
 151  0.440  0.377  0.470- 265 1.64 260 1.69
 152  0.238  0.214  0.430- 269 1.65 273 1.67
 153  0.073  0.204  0.562- 249 1.64 217 1.64
 154  0.845  0.601  0.599- 237 1.66 267 1.66
 155  0.621  0.335  0.411- 264 1.65 252 1.66
 156  0.603  0.947  0.467- 271 1.29 225 1.67
 157  0.031  0.250  0.389- 216 1.66 223 1.66
 158  0.607  0.250  0.548- 235 1.62 246 1.64
 159  0.133  0.994  0.479- 268 1.65 227 1.66
 160  0.080  0.335  0.512- 243 1.63 249 1.65
 161  0.373  0.157  0.568- 275 1.63 222 1.69
 162  0.066  0.752  0.536- 250 1.63 274 1.63
 163  0.666  0.471  0.430- 226 1.65 264 1.65
 164  0.800  0.785  0.564- 256 1.61 241 1.63
 165  0.704  0.012  0.470- 224 1.65 225 1.66
 166  0.597  0.686  0.554- 234 1.62 218 1.64
 167  0.723  0.349  0.452- 239 1.63 264 1.64
 168  0.977  0.370  0.547- 243 1.64 247 1.67
 169  0.158  0.685  0.571- 230 1.63 274 1.65
 170  0.633  0.382  0.508- 246 1.63 264 1.65
 171  0.821  0.453  0.606-  20 0.97 267 1.65
 172  0.959  0.082  0.417- 248 1.64 215 1.65
 173  0.282  0.251  0.519- 273 1.63 251 1.65
 174  0.249  0.498  0.461- 219 1.66 263 1.71
 175  0.271  0.904  0.568- 242 1.64 254 1.65
 176  0.204  0.741  0.487- 230 1.63 245 1.66
 177  0.147  0.531  0.493- 219 1.63 270 1.65
 178  0.225  0.478  0.557- 219 1.61 228 1.64
 179  0.911  0.508  0.474-  18 0.98 214 1.65
 180  0.870  0.760  0.464-  25 0.99 220 1.65
 181  0.738  0.148  0.445-  11 0.98 224 1.66
 182  0.222  0.985  0.408-  28 1.00 227 1.64
 183  0.252  0.458  0.649-  47 0.97 228 1.65
 184  0.631  0.939  0.593-  16 0.99 229 1.62
 185  0.410  0.844  0.423-  38 0.97 231 1.68
 186  0.918  0.251  0.508-  12 0.97 236 1.65
 187  0.133  0.499  0.332-  42 0.98 238 1.65
 188  0.155  0.359  0.311-  30 0.97 238 1.69
 189  0.373  0.186  0.348-  31 0.98 240 1.66
 190  0.035  0.348  0.633-  17 0.97 247 1.66
 191  0.573  0.312  0.320-  13 0.97 252 1.66
 192  0.245  0.826  0.650-  48 0.97 254 1.64
 193  0.207  0.704  0.310-  39 0.97 255 1.65
 194  0.275  0.447  0.367-  40 0.98 263 1.66
 195  0.365  0.653  0.342-  41 0.97 266 1.67
 196  0.226  0.111  0.358-  32 0.97 269 1.69
 197  0.241  0.251  0.329-  29 0.99 269 1.66
 198  0.501  0.947  0.455-  44 0.99 271 1.60
 199  0.550  0.883  0.534-  33 0.97 271 1.67
 200  0.545  0.704  0.634- 218 1.64 253 1.67
 201  0.479  0.175  0.596- 262 1.65 222 1.66
 202  0.262  0.749  0.569- 254 1.65 230 1.65
 203  0.444  0.898  0.583- 261 1.66 213 1.69
 204  0.766  0.673  0.649- 272 1.65 237 1.66
 205  0.845  0.887  0.622- 241 1.66 232 1.68
 206  0.640  0.795  0.620- 218 1.67 229 1.70
 207  0.008  0.088  0.603- 217 1.69 257 1.69
 208  0.285  0.056  0.594- 275 1.69 242 1.70
 209  0.504  0.025  0.629- 261 1.69 262 1.70
 210  0.576  0.529  0.712- 277 1.74
 211  0.465  0.467  0.713- 277 1.74
 212  0.083  0.662  0.406- 139 1.65 126 1.65  92 1.67 149 1.68 270 3.13
 213  0.409  0.817  0.576-  90 1.62 129 1.63 104 1.67 203 1.69 254 3.07
 214  0.842  0.497  0.468-  75 1.64 110 1.65 179 1.65 134 1.69
 215  0.017  0.046  0.394-  63 1.65 172 1.65  78 1.65 123 1.65 268 3.11 223 3.13
 216  0.015  0.339  0.391-  80 1.64  79 1.65 157 1.66 132 1.68 243 3.11 223 3.11
 217  0.010  0.170  0.572-  66 1.63 153 1.64  76 1.69 207 1.69 257 2.39 249 3.04 247 3.08
 218  0.609  0.713  0.611- 166 1.64 200 1.64 103 1.66 206 1.67 272 2.87
 219  0.214  0.531  0.510- 178 1.61 177 1.63 137 1.66 174 1.66 230 3.10 263 3.14
 220  0.915  0.811  0.496- 102 1.65 180 1.65  86 1.65  91 1.66 233 2.99 241 3.03
 221  0.521  0.166  0.426- 113 1.64  64 1.65 141 1.66 121 1.67 252 3.08 235 3.12
 222  0.419  0.222  0.588-  84 1.64 201 1.66 101 1.68 161 1.69 275 3.13 262 3.15
 223  0.083  0.194  0.407-  63 1.64 144 1.65  89 1.65 157 1.66 216 3.11 215 3.13 269 3.14
 224  0.702  0.100  0.487-  96 1.64 165 1.65  62 1.65 181 1.66 235 3.09 225 3.10 259 3.15
 225  0.665  0.953  0.437-  95 1.53 165 1.66 125 1.66 156 1.67 271 2.83 258 3.06 224 3.10
 226  0.650  0.559  0.430- 105 1.65 163 1.65  93 1.67  99 1.68 234 3.07
 227  0.198  0.968  0.464- 136 1.50 182 1.64 159 1.66 115 1.67 245 3.01 242 3.05 268 3.07
 228  0.214  0.422  0.603-  83 1.63 178 1.64 107 1.64 183 1.65
 229  0.674  0.869  0.594- 184 1.62 116 1.64  98 1.68 206 1.70 256 2.90
 230  0.216  0.697  0.539- 169 1.63 176 1.63 202 1.65 137 1.65 245 3.10 219 3.10 274 3.12
 231  0.369  0.790  0.459-  73 1.65  57 1.66 104 1.67 185 1.68
 232  0.797  0.943  0.595- 140 1.66  98 1.66 109 1.67 205 1.68 241 2.86 233 2.99
 233  0.879  0.967  0.512-  72 1.60  91 1.62 109 1.65 117 1.65 220 2.99 232 2.99 257 3.05 248 3.13

 234  0.576  0.629  0.511-  99 1.58 166 1.62 100 1.62 133 1.65 244 3.00 226 3.07 276 3.12
 235  0.590  0.170  0.525-  62 1.60 121 1.61 158 1.62 148 1.65 262 2.85 224 3.09 246 3.12 221 3.12

 236  0.858  0.207  0.495- 186 1.65  87 1.65 120 1.65  65 1.69 248 3.07 239 3.15
 237  0.836  0.659  0.646-  59 1.64  71 1.65 204 1.66 154 1.66 272 2.93 241 3.00 267 3.00
 238  0.134  0.416  0.357- 187 1.65  80 1.65  70 1.67 188 1.69 263 3.11
 239  0.791  0.335  0.442- 167 1.63 110 1.65 114 1.67  65 1.67 236 3.15
 240  0.399  0.233  0.396-  64 1.65 122 1.65 189 1.66  74 1.67 260 3.07
 241  0.856  0.805  0.596- 164 1.63  71 1.64  86 1.64 205 1.66 232 2.86 237 3.00 220 3.03
 242  0.283  0.989  0.549- 115 1.58 175 1.64  60 1.68 208 1.70 275 2.37 227 3.05
 243  0.023  0.386  0.502- 160 1.63 168 1.64  82 1.65 132 1.66 247 3.10 216 3.11 249 3.14
 244  0.575  0.751  0.436-  68 1.51 100 1.52 146 1.65  88 1.68 234 3.00 271 3.06 258 3.10
 245  0.230  0.808  0.452- 136 1.63 176 1.66  81 1.66  73 1.67 255 2.97 227 3.01 230 3.10
 246  0.594  0.339  0.548- 170 1.63 111 1.63 142 1.63 158 1.64 235 3.12
 247  0.975  0.328  0.602-  97 1.63  66 1.65 190 1.66 168 1.67 217 3.08 243 3.10
 248  0.889  0.081  0.424-  87 1.64 172 1.64  72 1.65 143 1.66 236 3.07 233 3.13
 249  0.105  0.251  0.518- 145 1.61 144 1.62 153 1.64 160 1.65 217 3.04 243 3.14
 250  0.048  0.788  0.483- 162 1.63 102 1.65  94 1.65 126 1.66 268 3.05
 251  0.232  0.261  0.561- 135 1.62  83 1.63 145 1.63 173 1.65 273 3.03
 252  0.561  0.313  0.381- 118 1.45 113 1.59 155 1.66 191 1.66 260 2.87 221 3.08
 253  0.478  0.678  0.623- 129 1.65 124 1.66 200 1.67  85 1.68 276 2.97 277 3.18
 254  0.281  0.825  0.598-  90 1.64 192 1.64 202 1.65 175 1.65 213 3.07
 255  0.209  0.699  0.372- 193 1.65 150 1.67  81 1.67 149 1.68 245 2.97
 256  0.741  0.766  0.536- 164 1.61 106 1.62 130 1.63 116 1.64 229 2.90 258 2.91 272 3.07
 257  0.986  0.046  0.550-  61 1.63 117 1.65  76 1.68 207 1.69 217 2.39 233 3.05
 258  0.703  0.792  0.434-  95 1.65 128 1.65 146 1.66 130 1.69 256 2.91 225 3.06 244 3.10
 259  0.788  0.115  0.577- 131 1.64  96 1.64 120 1.66 140 1.68 224 3.15
 260  0.456  0.384  0.409- 147 1.66 118 1.66  74 1.67 151 1.69 252 2.87 240 3.07
 261  0.451  0.988  0.595-  69 1.65 203 1.66 119 1.69 209 1.69 262 2.37 275 2.75
 262  0.509  0.094  0.586- 148 1.62 201 1.65 119 1.70 209 1.70 261 2.37 235 2.85 222 3.15
 263  0.244  0.426  0.421-  67 1.65  70 1.66 194 1.66 174 1.71 238 3.11 219 3.14
 264  0.659  0.385  0.450- 167 1.64 155 1.65 163 1.65 170 1.65
 265  0.460  0.372  0.529- 111 1.61 151 1.64 101 1.68 127 1.70
 266  0.337  0.645  0.399- 150 1.65 195 1.67  58 1.67  57 1.68
 267  0.804  0.532  0.580-  75 1.63 171 1.65 154 1.66 112 1.66 272 2.90 237 3.00
 268  0.069  0.954  0.481-  94 1.50  78 1.64 159 1.65  61 1.66 250 3.05 227 3.07 215 3.11
 269  0.212  0.200  0.374-  89 1.65 152 1.65 197 1.66 196 1.69 273 3.12 223 3.14
 270  0.078  0.549  0.495- 108 1.63  82 1.64 177 1.65  92 1.66 274 3.09 212 3.13
 271  0.558  0.908  0.475- 156 1.29 198 1.60  68 1.66 199 1.67 225 2.83 244 3.06
 272  0.719  0.640  0.610- 103 1.64 106 1.65 204 1.65 112 1.65 218 2.87 267 2.90 237 2.93 256 3.07

 273  0.287  0.265  0.459- 173 1.63 122 1.63  67 1.66 152 1.67 251 3.03 269 3.12
 274  0.088  0.680  0.568- 162 1.63 138 1.63 108 1.64 169 1.65 270 3.09 230 3.12
 275  0.354  0.071  0.578- 161 1.63  69 1.66 208 1.69  60 1.69 242 2.37 261 2.75 222 3.13
 276  0.486  0.535  0.570- 133 1.64  77 1.66 127 1.67  85 1.67 253 2.97 234 3.12
 277  0.506  0.540  0.692- 211 1.74 210 1.74  77 1.93 124 1.99 253 3.18

  LATTYP: Found a simple orthorhombic cell.
 ALAT       =    18.1212369514
 B/A-ratio  =     1.2919258579
 C/A-ratio  =     1.4835282260
  
  Lattice vectors:
  
 A1 = (   0.0000000000, -18.1212369514,   0.0000000000)
 A2 = ( -23.4112945954,   0.0000000000,   0.0000000000)
 A3 = (   0.0000000000,   0.0000000000, -26.8833665073)


Analysis of symmetry for initial positions (statically):
=====================================================================
 Subroutine PRICEL returns:
 Original cell was already a primitive cell.
 

 Routine SETGRP: Setting up the symmetry group for a 
 simple orthorhombic supercell.


 Subroutine GETGRP returns: Found  1 space group operations
 (whereof  1 operations were pure point group operations)
 out of a pool of  8 trial point group operations.


The static configuration has the point symmetry C_1 .


Analysis of symmetry for dynamics (positions and initial velocities):
=====================================================================
 Subroutine PRICEL returns:
 Original cell was already a primitive cell.
 

 Routine SETGRP: Setting up the symmetry group for a 
 simple orthorhombic supercell.


 Subroutine GETGRP returns: Found  1 space group operations
 (whereof  1 operations were pure point group operations)
 out of a pool of  8 trial point group operations.


The dynamic configuration has the point symmetry C_1 .


Analysis of constrained symmetry for selective dynamics:
=====================================================================
 Subroutine PRICEL returns:
 Original cell was already a primitive cell.
 

 Routine SETGRP: Setting up the symmetry group for a 
 simple orthorhombic supercell.


 Subroutine GETGRP returns: Found  1 space group operations
 (whereof  1 operations were pure point group operations)
 out of a pool of  8 trial point group operations.


The constrained configuration has the point symmetry C_1 .


 Subroutine INISYM returns: Found  1 space group operations
 (whereof  1 operations are pure point group operations),
 and found     1 'primitive' translations



 KPOINTS: KPOINTS created by Atomic Simulation Env

Automatic generation of k-mesh.
Space group operators:
 irot       det(A)        alpha          n_x          n_y          n_z        tau_x        tau_y        tau_z
    1     1.000000     0.000000     1.000000     0.000000     0.000000     0.000000     0.000000     0.000000
 
 Subroutine IBZKPT returns following result:
 ===========================================
 
 Found      5 irreducible k-points:
 
 Following reciprocal coordinates:
            Coordinates               Weight
  0.000000  0.000000  0.000000      1.000000
  0.333333  0.000000  0.000000      2.000000
  0.000000  0.333333  0.000000      2.000000
  0.333333  0.333333  0.000000      2.000000
 -0.333333  0.333333  0.000000      2.000000
 
 Following cartesian coordinates:
            Coordinates               Weight
  0.000000  0.000000  0.000000      1.000000
  0.014238  0.000000  0.000000      2.000000
  0.000000  0.018395  0.000000      2.000000
  0.014238  0.018395  0.000000      2.000000
 -0.014238  0.018395  0.000000      2.000000
 


--------------------------------------------------------------------------------------------------------




 Dimension of arrays:
   k-points           NKPTS =      5   k-points in BZ     NKDIM =      5   number of bands    NBANDS=    776
   number of dos      NEDOS =    301   number of ions     NIONS =    277
   non local maximal  LDIM  =      6   non local SUM 2l+1 LMDIM =     18
   total plane-waves  NPLWV = ******
   max r-space proj   IRMAX =   2748   max aug-charges    IRDMAX=   9808
   dimension x,y,z NGX =   128 NGY =  100 NGZ =  150
   dimension x,y,z NGXF=   256 NGYF=  200 NGZF=  300
   support grid    NGXF=   256 NGYF=  200 NGZF=  300
   ions per type =               4  52 155  65   1
   NGX,Y,Z   is equivalent  to a cutoff of   9.09,  9.17,  9.28 a.u.
   NGXF,Y,Z  is equivalent  to a cutoff of  18.18, 18.35, 18.55 a.u.

 SYSTEM =  unknown system                          
 POSCAR =   C  H  O Si  W                          

 Startparameter for this run:
   NWRITE =      2    write-flag & timer
   PREC   = normal    normal or accurate (medium, high low for compatibility)
   ISTART =      0    job   : 0-new  1-cont  2-samecut
   ICHARG =      2    charge: 1-file 2-atom 10-const
   ISPIN  =      1    spin polarized calculation?
   LNONCOLLINEAR =      F non collinear calculations
   LSORBIT =      F    spin-orbit coupling
   INIWAV =      1    electr: 0-lowe 1-rand  2-diag
   LASPH  =      T    aspherical Exc in radial PAW
   METAGGA=      F    non-selfconsistent MetaGGA calc.

 Electronic Relaxation 1
   ENCUT  =  500.0 eV  36.75 Ry    6.06 a.u.  42.68 33.04 49.01*2*pi/ulx,y,z
   ENINI  =  500.0     initial cutoff
   ENAUG  =  644.9 eV  augmentation charge cutoff
   NELM   =     60;   NELMIN=  2; NELMDL=  0     # of ELM steps 
   EDIFF  = 0.1E-03   stopping-criterion for ELM
   LREAL  =      T    real-space projection
   NLSPLINE    = F    spline interpolate recip. space projectors
   LCOMPAT=      F    compatible to vasp.4.4
   GGA_COMPAT  = T    GGA compatible to vasp.4.4-vasp.4.6
   LMAXPAW     = -100 max onsite density
   LMAXMIX     =    2 max onsite mixed and CHGCAR
   VOSKOWN=      0    Vosko Wilk Nusair interpolation
   ROPT   =   -0.00050  -0.00050  -0.00050  -0.00050
   ROPT   =   -0.00050
 Ionic relaxation
   EDIFFG = -.5E-01   stopping-criterion for IOM
   NSW    =    150    number of steps for IOM
   NBLOCK =      1;   KBLOCK =    150    inner block; outer block 
   IBRION =      1    ionic relax: 0-MD 1-quasi-New 2-CG
   NFREE  =      0    steps in history (QN), initial steepest desc. (CG)
   ISIF   =      0    stress and relaxation
   IWAVPR =     11    prediction:  0-non 1-charg 2-wave 3-comb
   ISYM   =      2    0-nonsym 1-usesym 2-fastsym
   LCORR  =      T    Harris-Foulkes like correction to forces

   POTIM  = 0.5000    time-step for ionic-motion
   TEIN   =    0.0    initial temperature
   TEBEG  =    0.0;   TEEND  =   0.0 temperature during run
   SMASS  =  -3.00    Nose mass-parameter (am)
   estimated Nose-frequenzy (Omega)   =  0.10E-29 period in steps =****** mass=  -0.125E-25a.u.
   SCALEE = 1.0000    scale energy and forces
   NPACO  =    256;   APACO  = 16.0  distance and # of slots for P.C.
   PSTRESS=    0.0 pullay stress

  Mass of Ions in am
   POMASS =  12.01  1.00 16.00 28.09183.85
  Ionic Valenz
   ZVAL   =   4.00  1.00  6.00  4.00  6.00
  Atomic Wigner-Seitz radii
   RWIGS  =  -1.00 -1.00 -1.00 -1.00 -1.00
  virtual crystal weights 
   VCA    =   1.00  1.00  1.00  1.00  1.00
   NELECT =    1264.0000    total number of electrons
   NUPDOWN=      -1.0000    fix difference up-down

 DOS related values:
   EMIN   =  10.00;   EMAX   =-10.00  energy-range for DOS
   EFERMI =   0.00
   ISMEAR =     0;   SIGMA  =   0.20  broadening in eV -4-tet -1-fermi 0-gaus

 Electronic relaxation 2 (details)
   IALGO  =     68    algorithm
   LDIAG  =      T    sub-space diagonalisation (order eigenvalues)
   LSUBROT=      F    optimize rotation matrix (better conditioning)
   TURBO    =      0    0=normal 1=particle mesh
   IRESTART =      0    0=no restart 2=restart with 2 vectors
   NREBOOT  =      0    no. of reboots
   NMIN     =      0    reboot dimension
   EREF     =   0.00    reference energy to select bands
   IMIX   =      4    mixing-type and parameters
     AMIX     =   0.40;   BMIX     =  1.00
     AMIX_MAG =   1.60;   BMIX_MAG =  1.00
     AMIN     =   0.10
     WC   =   100.;   INIMIX=   1;  MIXPRE=   1;  MAXMIX= -45

 Intra band minimization:
   WEIMIN = 0.0010     energy-eigenvalue tresh-hold
   EBREAK =  0.32E-07  absolut break condition
   DEPER  =   0.30     relativ break condition  

   TIME   =   0.40     timestep for ELM

  volume/ion in A,a.u.               =      41.17       277.85
  Fermi-wavevector in a.u.,A,eV,Ry     =   0.786366  1.486017  8.413461  0.618372
  Thomas-Fermi vector in A             =   1.890890

 Write flags
   LWAVE        =      F    write WAVECAR
   LDOWNSAMPLE  =      F    k-point downsampling of WAVECAR
   LCHARG       =      F    write CHGCAR
   LVTOT        =      F    write LOCPOT, total local potential
   LVHAR        =      F    write LOCPOT, Hartree potential only
   LELF         =      F    write electronic localiz. function (ELF)
   LORBIT       =      0    0 simple, 1 ext, 2 COOP (PROOUT), +10 PAW based schemes


 Dipole corrections
   LMONO  =      F    monopole corrections only (constant potential shift)
   LDIPOL =      T    correct potential (dipole corrections)
   IDIPOL =      3    1-x, 2-y, 3-z, 4-all directions 
   EPSILON=  1.0000000 bulk dielectric constant

 Exchange correlation treatment:
   GGA     =    RP    GGA type
   LEXCH   =     9    internal setting for exchange type
   VOSKOWN=      0    Vosko Wilk Nusair interpolation
   LHFCALC =     F    Hartree Fock is set to
   LHFONE  =     F    Hartree Fock one center treatment
   AEXX    =    0.0000 exact exchange contribution

 Linear response parameters
   LEPSILON=     F    determine dielectric tensor
   LRPA    =     F    only Hartree local field effects (RPA)
   LNABLA  =     F    use nabla operator in PAW spheres
   LVEL    =     F    velocity operator in full k-point grid
   LINTERFAST=   F  fast interpolation
   KINTER  =     0    interpolate to denser k-point grid
   CSHIFT  =0.1000    complex shift for real part using Kramers Kronig
   OMEGAMAX=  -1.0    maximum frequency
   DEG_THRESHOLD= 0.2000000E-02 threshold for treating states as degnerate
   RTIME   =   -0.100 relaxation time in fs
  (WPLASMAI=    0.000 imaginary part of plasma frequency in eV, 0.658/RTIME)
   DFIELD  = 0.0000000 0.0000000 0.0000000 field for delta impulse in time

 Orbital magnetization related:
   ORBITALMAG=     F  switch on orbital magnetization
   LCHIMAG   =     F  perturbation theory with respect to B field
   DQ        =  0.001000  dq finite difference perturbation B field
   LLRAUG    =     F  two centre corrections for induced B field



--------------------------------------------------------------------------------------------------------


 quasi-Newton-method for relaxation of ions
   using selective dynamics as specified on POSCAR
 charge density and potential will be updated during run
 non-spin polarized calculation
 RMM-DIIS sequential band-by-band and
  variant of blocked Davidson during initial phase
 perform sub-space diagonalisation
    before iterative eigenvector-optimisation
 modified Broyden-mixing scheme, WC =      100.0
 initial mixing is a Kerker type mixing with AMIX =  0.4000 and BMIX =      1.0000
 Hartree-type preconditioning will be used
 using additional bands          144
 real space projection scheme for non local part
 use partial core corrections
 calculate Harris-corrections to forces   (improved forces if not selfconsistent)
 use gradient corrections 
 use of overlap-Matrix (Vanderbilt PP)
 Gauss-broadening in eV      SIGMA  =   0.20


--------------------------------------------------------------------------------------------------------


  energy-cutoff  :      500.00
  volume of cell :    11405.04
      direct lattice vectors                 reciprocal lattice vectors
    23.411294595  0.000000000  0.000000000     0.042714426  0.000000000  0.000000000
     0.000000000 18.121236951  0.000000000     0.000000000  0.055183871  0.000000000
     0.000000000  0.000000000 26.883366507     0.000000000  0.000000000  0.037197722

  length of vectors
    23.411294595 18.121236951 26.883366507     0.042714426  0.055183871  0.037197722



 k-points in units of 2pi/SCALE and weight: KPOINTS created by Atomic Simulation Env
   0.00000000  0.00000000  0.00000000       0.111
   0.01423814  0.00000000  0.00000000       0.222
   0.00000000  0.01839462  0.00000000       0.222
   0.01423814  0.01839462  0.00000000       0.222
  -0.01423814  0.01839462  0.00000000       0.222

 k-points in reciprocal lattice and weights: KPOINTS created by Atomic Simulation Env
   0.00000000  0.00000000  0.00000000       0.111
   0.33333333  0.00000000  0.00000000       0.222
   0.00000000  0.33333333  0.00000000       0.222
   0.33333333  0.33333333  0.00000000       0.222
  -0.33333333  0.33333333  0.00000000       0.222

 position of ions in fractional coordinates (direct lattice) 
   0.48404170  0.60385990  0.78429905
   0.52220672  0.55158603  0.79956980
   0.50000316  0.68445178  0.77948440
   0.50984026  0.47397997  0.81548464
   0.76167716  0.15937145  0.65120896
   0.92642768  0.33385283  0.35633493
   0.79333970  0.26246277  0.37345652
   0.97453911  0.99879247  0.32530279
   0.62573266  0.01865672  0.37523120
   0.82053840  0.05019053  0.36899263
   0.74999307  0.19636263  0.45803819
   0.91547876  0.30468284  0.50950506
   0.58349286  0.35944742  0.30592717
   0.89194301  0.39036718  0.61618619
   0.59303943  0.41631825  0.61411101
   0.59361140  0.92679781  0.57801578
   0.03360501  0.39351678  0.65201747
   0.93527051  0.47469810  0.45410146
   0.74613838  0.58549586  0.42248819
   0.79961939  0.44011771  0.63617004
   0.59110202  0.62386670  0.37803474
   0.71843379  0.70111666  0.38346059
   0.84115291  0.59761047  0.41959617
   0.00476455  0.65898202  0.35777830
   0.82835870  0.76754054  0.46794226
   0.87235385  0.65065760  0.72316526
   0.51999031  0.04074863  0.42170307
   0.22309457  0.03533871  0.39320502
   0.21637369  0.29303533  0.31923033
   0.15750105  0.38499010  0.27898292
   0.34154688  0.21076958  0.33077276
   0.22271586  0.10094280  0.32273843
   0.51153859  0.87914887  0.54670857
   0.38204882  0.29732724  0.64713819
   0.24501778  0.14757344  0.59777436
   0.31538097  0.54232034  0.44243467
   0.40895618  0.49391873  0.40569060
   0.39849950  0.84829748  0.38878680
   0.24420236  0.71061395  0.29432688
   0.31174138  0.47365958  0.36925764
   0.40547429  0.63946352  0.33881989
   0.13935762  0.54315752  0.35192946
   0.59326935  0.75317100  0.35239799
   0.46900683  0.91661134  0.44382838
   0.12133945  0.37898951  0.61173533
   0.07283449  0.71953296  0.64629255
   0.24293094  0.43970894  0.68209192
   0.24462834  0.87138798  0.66896378
   0.43850157  0.58958787  0.78335562
   0.56711371  0.56823470  0.80193581
   0.48825576  0.71381168  0.81398432
   0.54632694  0.69093793  0.77387603
   0.47748411  0.71093740  0.74844217
   0.52135081  0.46820615  0.85516805
   0.46492645  0.45878301  0.81020682
   0.53689702  0.43497439  0.79466079
   0.36894173  0.70353897  0.43900002
   0.34681565  0.55921774  0.42038813
   0.86157052  0.61956188  0.69539877
   0.34891036  0.01052129  0.53031685
   0.03313891  0.98743881  0.52846325
   0.63635548  0.13405242  0.48937667
   0.06864615  0.10744929  0.39511073
   0.45189954  0.18474620  0.42059728
   0.80588415  0.26883405  0.48316661
   0.97387282  0.23672719  0.59861395
   0.27476529  0.35435674  0.44851223
   0.55635417  0.83027516  0.44175101
   0.39252124  0.02445550  0.61930910
   0.17751724  0.40515232  0.40527312
   0.86678067  0.73988920  0.63754132
   0.86569601  0.02236080  0.46703846
   0.30104714  0.81612071  0.45792526
   0.42161095  0.31643609  0.37959630
   0.81102447  0.52023638  0.52010001
   0.98394054  0.12760517  0.52095603
   0.51828731  0.51477731  0.62278470
   0.03453641  0.97513163  0.42940526
   0.96303654  0.35837918  0.35125762
   0.06962669  0.39128964  0.37637178
   0.20829566  0.78382817  0.39536010
   0.03890126  0.47428579  0.49910875
   0.23883977  0.34058964  0.58837926
   0.39583608  0.24720482  0.64334019
   0.45469539  0.61581128  0.58144993
   0.91019461  0.80456358  0.55752279
   0.86912727  0.16322721  0.44227833
   0.57257679  0.72251572  0.37613173
   0.14242656  0.21430937  0.37597224
   0.34973182  0.82165712  0.60665042
   0.91099605  0.90023144  0.48317962
   0.06133801  0.59205558  0.44225348
   0.70833903  0.61035042  0.41995768
   0.07548726  0.87199068  0.48299416
   0.70046477  0.88273959  0.43263529
   0.73020753  0.10462386  0.54295496
   0.91883924  0.35639493  0.63190085
   0.73503083  0.90768943  0.61285177
   0.62512195  0.58257787  0.48637871
   0.55657330  0.68488691  0.46724942
   0.42641041  0.29990824  0.55496372
   0.97829009  0.78342750  0.47679564
   0.65436491  0.65020992  0.63366194
   0.39733002  0.79959457  0.51577789
   0.60269007  0.57284932  0.38567099
   0.71966090  0.68660675  0.55720208
   0.14638068  0.42040976  0.61912945
   0.06613309  0.60342158  0.54207135
   0.81837922  0.93956753  0.53615478
   0.82821553  0.41056901  0.45190334
   0.52766400  0.35335248  0.53182568
   0.73711437  0.55483946  0.59551446
   0.55743394  0.22761498  0.39490854
   0.80596408  0.31159644  0.38329286
   0.23744622  0.00843462  0.50791956
   0.69318566  0.83164801  0.54116591
   0.92336854  0.00531732  0.55275339
   0.52573722  0.37296499  0.39855594
   0.46924314  0.04181205  0.54624784
   0.83782888  0.14996698  0.53967024
   0.53790325  0.17160136  0.48623709
   0.35019344  0.24179260  0.43963639
   0.01176032  0.01759777  0.33524376
   0.46495503  0.63290083  0.67600144
   0.65496522  0.98058138  0.37922825
   0.07629334  0.74121013  0.43588102
   0.45152584  0.45819860  0.55256700
   0.71921944  0.75560472  0.37958300
   0.44688663  0.75431070  0.60409174
   0.75255106  0.76450845  0.47629548
   0.77968739  0.17620067  0.62076610
   0.99327462  0.36319734  0.44840298
   0.53073268  0.56252540  0.52673630
   0.81677759  0.55424561  0.42344221
   0.23610811  0.19926170  0.60472629
   0.20353331  0.88588519  0.47053363
   0.23960986  0.61398014  0.52274038
   0.06093954  0.68043123  0.62397029
   0.04607407  0.65753056  0.35417863
   0.80068663  0.03366259  0.60525041
   0.53799091  0.08288136  0.40450275
   0.60620466  0.36730757  0.60490306
   0.86154611  0.05926472  0.36920633
   0.09491131  0.20420671  0.46708233
   0.17155177  0.25948748  0.53068236
   0.64098865  0.75962259  0.45481558
   0.43678778  0.46495235  0.38641325
   0.57448354  0.11217079  0.57080271
   0.15143775  0.64859189  0.38895836
   0.26773979  0.65752140  0.39230630
   0.44025846  0.37738205  0.47032443
   0.23800967  0.21369500  0.42990119
   0.07328449  0.20444681  0.56240554
   0.84511804  0.60074603  0.59881761
   0.62117943  0.33512375  0.41090545
   0.60266699  0.94671054  0.46722346
   0.03138539  0.25047370  0.38899188
   0.60723655  0.25011676  0.54768076
   0.13279973  0.99353852  0.47948708
   0.07988810  0.33523779  0.51203960
   0.37314646  0.15668414  0.56765227
   0.06636878  0.75164657  0.53562616
   0.66648838  0.47056875  0.43001156
   0.79987590  0.78454893  0.56392727
   0.70383856  0.01239230  0.47018456
   0.59691771  0.68641999  0.55354449
   0.72284030  0.34886852  0.45166811
   0.97727340  0.36951666  0.54708650
   0.15801952  0.68504301  0.57068041
   0.63333384  0.38196695  0.50780070
   0.82058003  0.45306325  0.60623462
   0.95857820  0.08242692  0.41695300
   0.28224321  0.25078196  0.51864821
   0.24925755  0.49821676  0.46105570
   0.27082831  0.90394476  0.56816338
   0.20366815  0.74075704  0.48688872
   0.14712345  0.53125375  0.49254493
   0.22483380  0.47764583  0.55651033
   0.91141698  0.50792847  0.47371881
   0.86978818  0.75974398  0.46415352
   0.73812021  0.14801849  0.44522965
   0.22218344  0.98496506  0.40794682
   0.25184452  0.45773020  0.64902442
   0.63078985  0.93882618  0.59321165
   0.41022327  0.84424626  0.42343739
   0.91777135  0.25122216  0.50824515
   0.13254706  0.49871998  0.33227266
   0.15514768  0.35870713  0.31056042
   0.37300515  0.18609091  0.34795342
   0.03467878  0.34775040  0.63318025
   0.57268926  0.31205206  0.32009968
   0.24483264  0.82571476  0.65013403
   0.20737430  0.70358892  0.31036906
   0.27537441  0.44737517  0.36737583
   0.36535081  0.65277050  0.34222079
   0.22638085  0.11136469  0.35811888
   0.24120334  0.25126210  0.32934297
   0.50127293  0.94748549  0.45484168
   0.55045372  0.88271140  0.53422785
   0.54495939  0.70406687  0.63421362
   0.47856554  0.17459104  0.59554223
   0.26208923  0.74900441  0.56899704
   0.44418779  0.89833638  0.58263711
   0.76596738  0.67275288  0.64946089
   0.84508700  0.88726892  0.62243367
   0.63965219  0.79490192  0.62012420
   0.00784483  0.08840389  0.60289913
   0.28526845  0.05551082  0.59359553
   0.50416634  0.02470364  0.62875498
   0.57642873  0.52932483  0.71196878
   0.46467354  0.46665780  0.71302847
   0.08322528  0.66160417  0.40641308
   0.40904369  0.81738567  0.57573103
   0.84176382  0.49663699  0.46783897
   0.01708949  0.04566591  0.39361135
   0.01470021  0.33937414  0.39108141
   0.00956629  0.16989325  0.57234763
   0.60945922  0.71259791  0.61071469
   0.21392751  0.53107608  0.50967246
   0.91506213  0.81074481  0.49625454
   0.52057854  0.16563950  0.42598659
   0.41868926  0.22204053  0.58835138
   0.08345253  0.19435595  0.40698087
   0.70189793  0.10003013  0.48732303
   0.66505935  0.95322133  0.43747644
   0.65009874  0.55921093  0.43015089
   0.19846065  0.96766610  0.46399069
   0.21409301  0.42185730  0.60339948
   0.67359087  0.86876260  0.59424807
   0.21635424  0.69672559  0.53862559
   0.36878912  0.79031160  0.45920930
   0.79725774  0.94344961  0.59531705
   0.87948368  0.96728034  0.51192811
   0.57555361  0.62880902  0.51130479
   0.58973751  0.17011448  0.52532170
   0.85812234  0.20729710  0.49517595
   0.83584461  0.65922794  0.64554221
   0.13373852  0.41550277  0.35687228
   0.79065529  0.33512312  0.44187265
   0.39917610  0.23267871  0.39600320
   0.85633460  0.80537777  0.59647718
   0.28280058  0.98851670  0.54947862
   0.02307473  0.38563139  0.50224551
   0.57455938  0.75067395  0.43556436
   0.23024095  0.80778437  0.45196954
   0.59382204  0.33881065  0.54822042
   0.97531575  0.32750336  0.60248915
   0.88890636  0.08059287  0.42420019
   0.10478418  0.25051052  0.51783214
   0.04814566  0.78822096  0.48263019
   0.23198346  0.26074742  0.56105527
   0.56140781  0.31296914  0.38122611
   0.47766990  0.67784203  0.62341305
   0.28062364  0.82545051  0.59783138
   0.20850083  0.69858372  0.37179454
   0.74071917  0.76597667  0.53587430
   0.98627089  0.04567026  0.55025386
   0.70310456  0.79200202  0.43426040
   0.78804983  0.11463871  0.57669061
   0.45631390  0.38363547  0.40928789
   0.45064224  0.98773764  0.59476359
   0.50902884  0.09354795  0.58590926
   0.24424715  0.42559019  0.42094710
   0.65852534  0.38518598  0.45034791
   0.46028141  0.37188439  0.52876916
   0.33729937  0.64512641  0.39908301
   0.80350192  0.53234100  0.57973572
   0.06920979  0.95404303  0.48050551
   0.21190758  0.19963819  0.37359659
   0.07823286  0.54916887  0.49468762
   0.55757019  0.90752397  0.47473025
   0.71853722  0.64027869  0.60987514
   0.28664212  0.26528561  0.45911077
   0.08780997  0.68042613  0.56785228
   0.35428467  0.07123682  0.57802282
   0.48601168  0.53481173  0.56959805
   0.50617872  0.53959418  0.69185219

 position of ions in cartesian coordinates  (Angst):
  11.33204286 10.94268826 21.08459890
  12.22553528  9.99542123 21.49512803
  11.70572136 12.40311289 20.95516494
  11.93602043  8.58910338 21.92297245
  17.83184838  2.88800776 17.50668904
  21.68887124  6.04982631  9.57948250
  18.57310935  4.75615001 10.03976840
  22.81522226 18.09935504  8.74523415
  14.64921175  0.33808286 10.08747787
  19.20986618  0.90951457  9.91976410
  17.55830880  3.55833369 12.31360861
  21.43254302  5.52122992 13.69721130
  13.66032332  6.51363182  8.22435231
  20.88154056  7.07393608 16.56515920
  13.88382090  7.54420158 16.50937137
  13.89721132 16.79472271 15.53901014
   0.78673685  7.13101082 17.52842462
  21.89589338  8.60211669 12.20777585
  17.46806539 10.60990927 11.35790489
  18.72012518  7.97547723 17.10239239
  13.83846347 11.30523625 10.16284657
  16.81946503 12.70510107 10.30871170
  19.69247867 10.82944088 11.28015755
   0.11154425 11.94156933  9.61828518
  19.39294954 13.90878407 12.57986315
  20.42293300 11.79072054 19.44111676
  12.17364643  0.73841562 11.33679820
   5.22293275  0.64038107 10.57067472
   5.06558822  5.31016263  8.58198589
   3.68730349  6.97649684  7.50000000
   7.99605455  3.81940544  8.89228530
   5.21406665  1.82920834  8.67629559
  11.97578060 15.93126490 14.69736690
   8.94425748  5.38793741 17.39725320
   5.73618337  2.67421324 16.07018721
   7.38347683  9.82751530 11.89413327
   9.57419369  8.95041833 10.90632902
   9.32938927 15.37219961 10.45189795
   5.71709332 12.87720376  7.91249741
   7.29826932  8.58329756  9.92688859
   9.49267817 11.58787005  9.10861924
   3.26254231  9.84268608  9.46104865
  13.88920341 13.64839014  9.47364424
  10.98005707 16.61013129 11.93160111
   2.84071371  6.86775870 16.44550500
   1.70514973 13.03882728 17.37451946
   5.68732791  7.96806988 18.33692701
   5.72706613 15.79062806 17.98399839
  10.26588950 10.68406141 21.05923624
  13.27686619 10.29711573 21.55873435
  11.43069944 12.93515062 21.88263890
  12.79022090 12.52064989 20.80439288
  11.17852122 12.88306515 20.12064525
  12.20549746  8.48447463 22.98979604
  10.88453015  8.31371559 21.78108683
  12.56945424  7.88227397 21.36315716
   8.63740362 12.74899635 11.80179838
   8.11940335 10.13371715 11.30144811
  20.17048124 11.22722759 18.69465999
   8.16844328  0.19065874 14.25670219
   0.77582488 17.89361259 14.20687130
  14.89790566  2.42919560 13.15609244
   1.60709516  1.94711409 10.62190669
  10.57955332  3.34782959 11.30707087
  18.86679123  4.87160553 12.98914499
  22.79962341  4.28978942 16.09275828
   6.43261122  6.42138249 12.05751853
  13.02497128 15.04561295 11.87575437
   9.18943046  0.44316390 16.64911346
   4.15590840  7.34186120 10.89510594
  20.29245753 13.40770744 17.13925705
  20.26706433  0.40520541 12.55556607
   7.04790320 14.78911669 12.31057251
   9.87045805  5.73421333 10.20482654
  18.98713287  9.42732674 13.98203912
  23.03532186  2.31236352 14.00505184
  12.13377690  9.32840156 16.74254928
   0.80854198 17.67059137 11.54385891
  22.54593219  6.49427402  9.44298747
   1.63005096  7.09065222 10.11814055
   4.87647100 14.20393591 10.62861051
   0.91072893  8.59464512 13.41772355
   5.59154822  6.17190552 15.81761526
   9.26703515  4.47965708 17.29515022
  10.64500779 11.15926220 15.63133145
  21.30883418 14.57968733 14.98808959
  20.34739459  2.95787901 11.88993046
  13.40476402 13.09287863 10.11168720
   3.33439013  3.88355087 10.10739962
   8.18767460 14.88944332 16.30880563
  21.32759690 16.31330728 12.98949491
   1.43600223 10.72877939 11.88926245
  16.58313365 11.06030463 11.28987623
   1.76725442 15.80154966 12.98450890
  16.39878711 15.99633320 11.63069310
  17.09510364  1.89591368 14.59645714
  21.51121623  6.45831693 16.98762213
  17.20802319 16.44845524 16.47551868
  14.63491423 10.55703168 13.07549710
  13.03010146 12.41099800 12.56123752
   9.98281966  5.43470822 14.91929298
  22.90303759 14.19667544 12.81787194
  15.31952977 11.78260794 17.03496604
   9.30201018 14.48964264 13.86584608
  14.10975474 10.38073831 10.36813464
  16.84819340 12.44216369 14.97946781
   3.42696126  7.61834483 16.64428382
   1.54826117 10.93474537 14.57270289
  19.15931701 17.02612578 14.41364540
  19.38959778  7.44001838 12.14868300
  12.35329737  6.40318396 14.29726470
  17.25680168 10.05437727 16.00943353
  13.05025010  4.12466491 10.61647095
  18.86866258  5.64651295 10.30420244
   5.55892333  0.15284577 13.65458756
  16.22837358 15.07049074 14.54836144
  21.61725294  0.09635634 14.85987201
  12.30818899  6.75858697 10.71452528
  10.98558931  0.75768598 14.68498095
  19.61465881  2.71758727 14.50815298
  12.59301152  3.10962891 13.07168996
   8.19848185  4.38158106 11.81890631
   0.27532438  0.31889337  9.01248080
  10.88519915 11.46894595 18.17319449
  15.33358375 17.76934745 10.19493214
   1.78612593 13.43164437 11.71794928
  10.57080451  8.30312539 14.85486119
  16.83785811 13.69249221 10.20446890
  10.46219453 13.66904286 16.24001963
  17.61819454 13.85383871 12.80442605
  18.25349129  3.19297411 16.68828266
  23.25384464  6.58158514 12.05458163
  12.42513902 10.19365615 14.16044511
  19.12182067 10.04361594 11.38355200
   5.52759654  3.61086840 16.25707849
   4.76497818 16.05333538 12.64952801
   5.60957710 11.12607966 14.05302129
   1.42667352 12.33025558 16.77442202
   1.07865368 11.91526714  9.52151395
  18.74511066  0.61000768 16.27116862
  12.59506368  1.50191281 10.87439573
  14.19203595  6.65606747 16.26183065
  20.16990973  1.07395004  9.92550906
   2.22199659  3.70047811 12.55674536
   4.01624908  4.70223411 14.26652842
  15.00637423 13.76530097 12.22697399
  10.22576747  8.42551174 10.38808912
  13.44940345  2.03267345 15.34509853
   3.54535369 11.75328740 10.45651017
   6.26813510 11.91510113 10.54651395
  10.30702051  6.83862961 12.64390410
   5.57211440  3.87241773 11.55719116
   1.71568472  3.70482917 15.11935422
  19.78530745 10.88626111 16.09823337
  14.54261460  6.07285684 11.04652184
  14.10921452 17.15556596 12.56053950
   0.73477264  4.53889327 10.45741115
  14.21619367  4.53242498 14.72350273
   3.10901352 18.00414686 12.89022683
   1.87028383  6.07492337 13.76534826
   8.73584166  2.83931041 15.26040416
   1.55377906 13.62076557 14.39943438
  15.60335582  8.52728779 11.56015827
  18.72613028 14.21699712 15.16026358
  16.47777184  0.22456388 12.64014391
  13.97461631 12.43877921 14.88113951
  16.92262721  6.32192921 12.14235921
  22.87923552  6.69609891 14.70752688
   3.69944160 12.41382674 15.34181067
  14.82716522  6.92171361 13.65139239
  19.21084088  8.21006657 16.29762759
  22.44155659  1.49367766 11.20910044
   6.60767890  4.54447930 13.94300983
   5.83544193  9.02830396 12.39472924
   6.34044141 16.38059714 15.27414449
   4.76813504 13.42343385 13.08920785
   3.44435051  9.62697504 13.24126574
   5.26365022  8.65553330 14.96087128
  21.33745138  9.20429214 12.73515651
  20.36286723 13.76750071 12.47800922
  17.28034963  2.68227812 11.96927179
   5.20160189 17.84878525 10.96698378
   5.89600630  8.29463746 17.44796142
  14.76760699 17.01269175 15.94752627
   9.60385771 15.29878658 11.38342242
  21.48621551  4.55245637 13.66334053
   3.10309823  9.03742302  8.93260776
   3.63220806  6.50021683  8.34890949
   8.73253334  3.37219755  9.35415932
   0.81187521  6.30166748 17.02201668
  13.40739700  5.65476936  8.60535697
   5.73184912 14.96297284 17.47779131
   4.85490080 12.74990155  8.34376522
   6.44687148  8.10699146  9.87629901
   8.55333550 11.82900896  9.20004704
   5.29986878  2.01806603  9.62744117
   5.64688233  4.55318002  8.85384768
  11.73544815 17.16960912 12.22767567
  12.88683430 15.99582251 14.36184313
  12.75820471 12.75856254 17.04979730
  11.20383894  3.16380566 16.01018009
   6.13584814 13.57288639 15.29655596
  10.39901132 16.27896648 15.66324704
  17.93228792 12.19111427 17.45969523
  19.78458082 16.07841035 16.73311259
  14.97508595 14.40460612 16.67102605
   0.18365760  1.60198792 16.20795826
   6.67850371  1.00592473 15.95784606
  11.80318668  0.44766056 16.90305068
  13.49494278  9.59202061 19.14011767
  10.87860910  8.45641665 19.16860580
   1.94841153 11.98908596 10.92575188
   9.57624231 14.81203933 15.47758834
  19.70678075  8.99967650 12.57708649
   0.40008717  0.82752277 10.58159830
   0.34415087  6.14987929 10.51358498
   0.22395930  3.07867578 15.38663112
  14.26822924 12.91315565 16.41806696
   5.00831991  9.62375551 13.70171146
  21.42278905 14.69169878 13.34099278
  12.18741762  3.00159257 11.45195358
   9.80205750  4.02364914 15.81686583
   1.95373172  3.52197018 10.94101594
  16.43233932  1.81266960 13.10088356
  15.56990048 17.27354967 11.76083937
  15.21965321 10.13359373 11.56390395
   4.64622069 17.53530673 12.47363180
   5.01219458  7.64457601 16.22140935
  15.76963421 15.74305302 15.97538854
   5.06513274 12.62552949 14.48006915
   8.63383069 14.32142384 12.34509184
  18.66483581 17.09647385 16.00412658
  20.58985163 17.52831630 13.76235099
  13.47445501 11.39479731 13.74559397
  13.80651863  3.08268478 14.12241577
  20.08975493  3.75647993 13.31199648
  19.56820432 11.94602565 17.35434778
   3.13099191  7.52942423  9.59392828
  18.51026388  6.07284540 11.87902451
   9.34522920  4.21642612 10.64589911
  20.04790152 14.59444147 16.03531462
   6.62072775 17.91314544 14.77183525
   0.54020936  6.98811771 13.50205012
  13.45117902 13.60314055 11.70943634
   5.39023881 14.63805193 12.15046292
  13.90214268  6.13966799 14.73801049
  22.83340426  5.93476593 16.19693668
  20.81044864  1.46044249 11.40392910
   2.45313328  4.53956049 13.92107123
   1.12715225 14.28353886 12.97472440
   5.43103321  4.72506586 15.08305442
  13.14328356  5.67138795 10.24864117
  11.18287070 12.28333608 16.75944158
   6.56976261 14.95818436 16.07172007
   4.88127424 12.65920104  9.99508876
  17.34119462 13.88044470 14.40610522
  23.08987838  0.82760159 14.79267621
  16.46058793 14.35205634 11.67438144
  18.44926675  2.07739522 15.50338512
  10.68289909  6.95194918 11.00303640
  10.55011824 17.89902779 15.98924747
  11.91702410  1.69520464 15.75121349
   5.71814202  7.71222076 11.31647527
  15.41693082  6.98004644 12.10686792
  10.77578363  6.73900512 14.21509522
   7.89661487 11.69048859 10.72869482
  18.81102024  9.64667733 15.58524787
   1.62029077 17.28843975 12.91760565
   4.96103076  3.61769098 10.04353415
   1.83153245  9.95161915 13.29886860
  13.05343995 16.44545689 12.76234739
  16.82188643 11.60264193 16.39549704
   6.71066321  4.80730339 12.34244318
   2.05574516 12.33016319 15.26578087
   8.29426275  1.29089935 15.53919929
  11.37816265  9.69145017 15.31271311
  11.85029903  9.77811399 18.59931605



--------------------------------------------------------------------------------------------------------


 k-point  1 :   0.0000 0.0000 0.0000  plane waves:  289505
 k-point  2 :   0.3333 0.0000 0.0000  plane waves:  289422
 k-point  3 :   0.0000 0.3333 0.0000  plane waves:  289550
 k-point  4 :   0.3333 0.3333 0.0000  plane waves:  289551
 k-point  5 :  -0.3333 0.3333 0.0000  plane waves:  289551

 maximum and minimum number of plane-waves per node :     72451    72309

 maximum number of plane-waves:    289551
 maximum index in each direction: 
   IXMAX=   43   IYMAX=   33   IZMAX=   49
   IXMIN=  -43   IYMIN=  -33   IZMIN=  -49


 real space projection operators:
  total allocation   :      13820.27 KBytes
  max/ min on nodes  :       3456.58       3452.23


 parallel 3D FFT for wavefunctions:
    minimum data exchange during FFTs selected (reduces bandwidth)
 parallel 3D FFT for charge:
    minimum data exchange during FFTs selected (reduces bandwidth)


 total amount of memory used by VASP MPI-rank0   703397. kBytes
=======================================================================

   base      :      30000. kBytes
   nonlr-proj:      17046. kBytes
   fftplans  :      30982. kBytes
   grid      :      57864. kBytes
   one-center:       1088. kBytes
   wavefun   :     566417. kBytes

     INWAV:  cpu time    0.0000: real time    0.0000
 Broyden mixing: mesh for mixing (old mesh)
   NGX = 85   NGY = 67   NGZ = 99
  (NGX  =256   NGY  =200   NGZ  =300)
  gives a total of 563805 points

 initial charge density was supplied:
 charge density of overlapping atoms calculated
 number of electron    1264.0000000 magnetization 
 keeping initial charge density in first step


--------------------------------------------------------------------------------------------------------


 Maximum index for non-local projection operator          651
 Maximum index for augmentation-charges          530 (set IRDMAX)


--------------------------------------------------------------------------------------------------------


 First call to EWALD:  gamma=   0.079
 Maximum number of real-space cells 3x 3x 2
 Maximum number of reciprocal cells 3x 2x 3

    FEWALD:  cpu time    0.0259: real time    0.0260


--------------------------------------- Iteration      1(   1)  ---------------------------------------


    POTLOK:  cpu time    0.2840: real time    0.2898
    SETDIJ:  cpu time    0.5909: real time    0.5925
     EDDAV:  cpu time   82.4224: real time   82.6943
       DOS:  cpu time    0.0045: real time    0.0045
    --------------------------------------------
      LOOP:  cpu time   83.3018: real time   83.5811

 eigenvalue-minimisations  :  8712
 total energy-change (2. order) : 0.1308922E+05  (-0.5041431E+05)
 number of electron    1264.0000000 magnetization 
 augmentation part     1264.0000000 magnetization 

 DIPCOR: dipole corrections for dipol
 direction  3 min pos    78,
 dipolmoment           0.000000      0.000000      8.290453 electrons x Angstroem
 Tr[quadrupol]    -96748.976928

 energy correction for charged system         0.000000 eV
 dipol+quadrupol energy correction           -0.558822 eV
 added-field ion interaction       1150.307080 eV  (added to PSCEN)


 Free energy of the ion-electron system (eV)
  ---------------------------------------------------
  alpha Z        PSCENC =      1644.81570953
  Ewald energy   TEWEN  =    307782.04860509
  -Hartree energ DENC   =   -370391.52765138
  -exchange      EXHF   =         0.00000000
  -V(xc)+E(xc)   XCENC  =      3805.08926626
  PAW double counting   =     60302.38778424   -59321.72876092
  entropy T*S    EENTRO =        -1.60385635
  eigenvalues    EBANDS =     -5869.79571182
  atomic energy  EATOM  =     75139.53829012
  Solvation  Ediel_sol  =         0.00000000
  ---------------------------------------------------
  free energy    TOTEN  =     13089.22367478 eV

  energy without entropy =    13090.82753113  energy(sigma->0) =    13090.02560295


--------------------------------------------------------------------------------------------------------




--------------------------------------- Iteration      1(   2)  ---------------------------------------


     EDDAV:  cpu time   97.8094: real time   98.1284
       DOS:  cpu time    0.0012: real time    0.0012
    --------------------------------------------
      LOOP:  cpu time   97.8106: real time   98.1296

 eigenvalue-minimisations  : 10712
 total energy-change (2. order) :-0.1249681E+05  (-0.1210063E+05)
 number of electron    1264.0000000 magnetization 
 augmentation part     1264.0000000 magnetization 

 DIPCOR: dipole corrections for dipol
 direction  3 min pos    78,
 dipolmoment           0.000000      0.000000      8.290453 electrons x Angstroem
 Tr[quadrupol]    -96748.976928

 energy correction for charged system         0.000000 eV
 dipol+quadrupol energy correction           -0.558822 eV
 added-field ion interaction       1150.307080 eV  (added to PSCEN)


 Free energy of the ion-electron system (eV)
  ---------------------------------------------------
  alpha Z        PSCENC =      1644.81570953
  Ewald energy   TEWEN  =    307782.04860509
  -Hartree energ DENC   =   -370391.52765138
  -exchange      EXHF   =         0.00000000
  -V(xc)+E(xc)   XCENC  =      3805.08926626
  PAW double counting   =     60302.38778424   -59321.72876092
  entropy T*S    EENTRO =        -0.00000000
  eigenvalues    EBANDS =    -18368.21108366
  atomic energy  EATOM  =     75139.53829012
  Solvation  Ediel_sol  =         0.00000000
  ---------------------------------------------------
  free energy    TOTEN  =       592.41215928 eV

  energy without entropy =      592.41215928  energy(sigma->0) =      592.41215928


--------------------------------------------------------------------------------------------------------




--------------------------------------- Iteration      1(   3)  ---------------------------------------


     EDDAV:  cpu time   85.2448: real time   85.5267
       DOS:  cpu time    0.0013: real time    0.0013
    --------------------------------------------
      LOOP:  cpu time   85.2461: real time   85.5279

 eigenvalue-minimisations  :  9056
 total energy-change (2. order) :-0.2616302E+04  (-0.2604776E+04)
 number of electron    1264.0000000 magnetization 
 augmentation part     1264.0000000 magnetization 

 DIPCOR: dipole corrections for dipol
 direction  3 min pos    78,
 dipolmoment           0.000000      0.000000      8.290453 electrons x Angstroem
 Tr[quadrupol]    -96748.976928

 energy correction for charged system         0.000000 eV
 dipol+quadrupol energy correction           -0.558822 eV
 added-field ion interaction       1150.307080 eV  (added to PSCEN)


 Free energy of the ion-electron system (eV)
  ---------------------------------------------------
  alpha Z        PSCENC =      1644.81570953
  Ewald energy   TEWEN  =    307782.04860509
  -Hartree energ DENC   =   -370391.52765138
  -exchange      EXHF   =         0.00000000
  -V(xc)+E(xc)   XCENC  =      3805.08926626
  PAW double counting   =     60302.38778424   -59321.72876092
  entropy T*S    EENTRO =        -0.00000000
  eigenvalues    EBANDS =    -20984.51335164
  atomic energy  EATOM  =     75139.53829012
  Solvation  Ediel_sol  =         0.00000000
[...]
     23.03503      2.30772     14.00637        -0.011151     -0.011999      0.005514
     12.13102      9.32894     16.73955        -0.007975     -0.009633     -0.005100
      0.80854     17.67059     11.54386        -0.099473      0.477618     -0.369118
     22.54593      6.49427      9.44299         0.197127     -0.205862      0.361941
      1.63005      7.09065     10.11814         0.269288     -0.110332     -0.026593
      4.87647     14.20394     10.62861         0.442395     -0.156703      0.389799
      0.91073      8.59465     13.41772         0.492526     -0.042812      0.150915
      5.59279      6.17419     15.81399        -0.007971      0.009879     -0.017494
      9.27287      4.48323     17.29583         0.001551      0.020193      0.009457
     10.64485     11.15759     15.63043         0.003807     -0.006358      0.009135
     21.30936     14.57448     14.99104        -0.009994     -0.012653      0.000865
     20.34739      2.95788     11.88993        -0.060004     -0.096567      0.366746
     13.40476     13.09288     10.11169        -0.263728      0.136308      0.075081
      3.33439      3.88355     10.10740        -0.045216     -0.072425      0.145624
      8.18626     14.89514     16.31063        -0.017489      0.022003      0.022253
     21.32760     16.31331     12.98949         0.254275     -1.478849      0.136111
      1.43600     10.72878     11.88926         0.538015      0.271059      0.116690
     16.58313     11.06030     11.28988        -0.244801     -0.558808     -0.042686
      1.76725     15.80155     12.98451        -0.063576     -6.487061      0.320911
     16.39879     15.99633     11.63069         1.813100     -3.808812     -0.233796
     17.09520      1.89145     14.59691         0.007684     -0.019908      0.004482
     21.51267      6.46352     16.99159         0.021910      0.006626      0.021151
     17.20904     16.44299     16.47730        -0.010239     -0.023510      0.000196
     14.63491     10.55703     13.07550         2.017134     -1.202781     -1.241352
     13.03010     12.41100     12.56124        -3.617838     -2.490711      1.463804
      9.98029      5.43435     14.91501        -0.010862     -0.004383     -0.016583
     22.90304     14.19668     12.81787         0.388094      0.269503      0.213376
     15.31839     11.78196     17.03465         0.011789      0.006735      0.001158
      9.29615     14.49347     13.86871        -0.003153      0.016839     -0.004184
     14.10975     10.38074     10.36813         0.281814     -0.006813      0.347263
     16.84534     12.44357     14.97944        -0.029249      0.010150     -0.006355
      3.42511      7.61932     16.64108         0.010876      0.018999     -0.018777
      1.54558     10.93390     14.57202        -0.011413     -0.004516      0.000336
     19.15947     17.02633     14.41640        -0.005872      0.008014      0.015268
     19.38960      7.44002     12.14868        -0.132611      0.198057      0.163342
     12.35321      6.39858     14.30077        -0.000453     -0.017023      0.017570
     17.25497     10.05592     16.00368         0.003427      0.010025     -0.017268
     13.05025      4.12466     10.61647        -1.376870     -1.825275      0.509198
     18.86866      5.64651     10.30420        -0.020378     -0.022953      0.697921
      5.55892      0.15285     13.65459        -0.787789      0.249003     -0.974653
     16.22299     15.07103     14.54897        -0.006593     -0.000141      0.001264
     21.61780      0.09279     14.86273         0.003329     -0.015064      0.005498
     12.30819      6.75859     10.71453        -7.914972      6.659674      3.151995
     10.98072      0.75919     14.68569        -0.013694     -0.001845      0.006137
     19.61700      2.71609     14.50913         0.004295     -0.011343      0.003727
     12.59301      3.10963     13.07169        -2.090500      0.627101     -1.088565
      8.19848      4.38158     11.81891        -0.085430      0.225593     -0.033901
      0.27532      0.31889      9.01248        -0.240016      0.204187      0.302705
     10.88485     11.46651     18.17335        -0.004581      0.003689      0.003660
     15.33358     17.76935     10.19493        -0.581250      0.140445      0.593490
      1.78613     13.43164     11.71795         0.004590     -0.156875      0.093656
     10.56837      8.30138     14.85648         0.001697     -0.007076      0.005161
     16.83786     13.69249     10.20447        -0.021801      0.285445      0.453302
     10.45982     13.66706     16.24072         0.002730     -0.005562     -0.007398
     17.61819     13.85384     12.80443        -0.376084      0.198673     -1.121492
     18.25570      3.19082     16.68714         0.005856      0.000077     -0.012308
     23.25384      6.58159     12.05458         0.236353      0.036109     -0.099383
     12.42628     10.19626     14.16164         0.002469      0.000426     -0.004180
     19.12182     10.04362     11.38355         0.362347     -0.392207      0.380991
      5.53162      3.61145     16.25268         0.021830      0.005969     -0.009782
      4.76498     16.05334     12.64953         0.569032     -6.692589      0.313730
      5.61577     11.12574     14.04943         0.014679      0.006399     -0.008322
      1.42601     12.32921     16.77437         0.002625     -0.013762     -0.005185
      1.07865     11.91527      9.52151         0.174507      0.139915      0.402540
     18.74342      0.60852     16.27816        -0.024524     -0.005738      0.031475
     12.59506      1.50191     10.87440        -0.237216      0.404794      0.179146
     14.19766      6.65945     16.26332        -0.002703      0.013482      0.005211
     20.16991      1.07395      9.92551        -0.007274      0.053045      0.318481
      2.22200      3.70048     12.55675        -0.027190     -0.051270     -0.896163
      4.01852      4.69704     14.26234         0.006586     -0.012723     -0.013019
     15.00637     13.76530     12.22697         2.595382      0.231998     -0.645533
     10.22577      8.42551     10.38809         0.221835     -0.715901      0.511262
     13.44902      2.02834     15.34285        -0.000890     -0.023496     -0.010095
      3.54535     11.75329     10.45651         0.035246      0.727063      0.085246
      6.26814     11.91510     10.54651         0.149666      0.283685      0.020381
     10.30702      6.83863     12.64390         0.339138      0.080824     -0.874422
      5.57211      3.87242     11.55719         0.326888      0.207509     -0.366041
      1.71404      3.70209     15.11480        -0.003673     -0.010717     -0.010901
     19.78609     10.88763     16.09648         0.002646      0.008151     -0.013021
     14.54261      6.07286     11.04652         1.400722      0.660161      0.899494
     14.10921     17.15557     12.56054        23.573363     14.594169     -4.545937
      0.73477      4.53889     10.45741         0.418517      0.165140      0.282005
     14.21466      4.53164     14.72635        -0.007914     -0.006875      0.011729
      3.10901     18.00415     12.89023         0.001552     -0.143530     -0.373733
      1.86952      6.07363     13.76783         0.004753      0.004851     -0.002350
      8.73673      2.83899     15.26269        -0.006551      0.005148      0.004333
      1.55100     13.61950     14.39912        -0.009768     -0.003114     -0.003292
     15.60336      8.52729     11.56016        -0.313637      0.163024      0.417711
     18.72220     14.21412     15.16551        -0.021594     -0.001026      0.026310
     16.47777      0.22456     12.64014        -0.750270      0.305853     -0.248379
     13.97191     12.43718     14.88354        -0.004371      0.002276      0.002171
     16.92263      6.32193     12.14236         0.232011      0.049810     -0.020041
     22.87661      6.69757     14.70720        -0.012362      0.010558     -0.003812
      3.69675     12.41207     15.33854         0.002575     -0.001153     -0.031184
     14.82717      6.92171     13.65139         0.354466      0.213601     -0.702900
     19.21374      8.21318     16.29873         0.016158      0.019908     -0.008413
     22.44156      1.49368     11.20910        -0.289045     -0.394529     -0.355413
      6.60859      4.54548     13.94161         0.015988      0.008852      0.000882
      5.83544      9.02830     12.39473        -0.005032     -0.801867     -0.694557
      6.34389     16.37857     15.26904        -0.000702     -0.008522     -0.011326
      4.76814     13.42343     13.08921         0.225047      0.539799     -0.363376
      3.44435      9.62698     13.24127        -0.335312      0.110844      0.145355
      5.26661      8.65981     14.96382         0.015404      0.015289      0.013603
     21.33745      9.20429     12.73516        -0.258053     -0.140700     -0.119244
     20.36287     13.76750     12.47801         0.331616      0.300939      0.372874
     17.28035      2.68228     11.96927        -0.153439     -0.241844      0.445044
      5.20160     17.84879     10.96698        -0.332444      0.397531      0.311002
      5.89632      8.29292     17.45033         0.009867      0.005790     -0.013200
     14.76384     17.01228     15.94679        -0.009540     -0.002521      0.000977
      9.60386     15.29879     11.38342        -0.507371     -0.446325      0.313297
     21.48622      4.55246     13.66334        -0.743523     -0.019174     -0.142990
      3.10310      9.03742      8.93261         0.118232     -0.265645      0.291547
      3.63221      6.50022      8.34891        -0.158496      0.573060      0.311895
      8.73253      3.37220      9.35416         0.234221      0.574615      0.317656
      0.81052      6.30491     17.02272        -0.003641      0.003776     -0.011702
     13.40740      5.65477      8.60536        -0.179221      0.224113      0.195924
      5.72591     14.96547     17.47673        -0.038296      0.005251     -0.010514
      4.85490     12.74990      8.34377         0.096471     -0.189550      0.531156
      6.44687      8.10699      9.87630        -0.010730     -0.003888      0.675699
      8.55334     11.82901      9.20005        -0.077170     -0.012896      0.719749
      5.29987      2.01807      9.62744        -0.088862      0.753118      0.048918
      5.64688      4.55318      8.85385        -0.414068     -0.029470      0.475194
     11.73545     17.16961     12.22768        -2.215425      1.002904     -0.717884
     12.88744     15.99240     14.36207         0.007608     -0.018826     -0.005212
     12.75737     12.75951     17.05143         0.006264      0.006813      0.013490
     11.20156      3.16201     16.00900         0.003888     -0.008556     -0.007143
      6.13600     13.57179     15.29736         0.004127     -0.000239      0.017660
     10.40112     16.27776     15.66735         0.010530     -0.002815      0.009322
     17.93241     12.18980     17.45827        -0.003430     -0.015750      0.002567
     19.78182     16.07867     16.73801        -0.004727     -0.005131      0.016025
     14.97301     14.40464     16.67163        -0.008705      0.001472      0.006181
      0.18457      1.60040     16.21076         0.002888     -0.004528     -0.007247
      6.67953      1.00687     15.95849         0.000256     -0.006657     -0.002446
     11.80487      0.44610     16.90101         0.007088     -0.005063     -0.008006
     13.49414      9.59503     19.13708        -0.003135      0.013514     -0.023627
     10.88103      8.45596     19.17153         0.016026      0.000724      0.017175
      1.94841     11.98909     10.92575        -0.059270     -0.122352      0.109951
      9.57550     14.81324     15.48062        -0.002397      0.001944      0.004902
     19.70678      8.99968     12.57709         0.117921     -0.177752     -0.246893
      0.40009      0.82752     10.58160         0.085103     -0.158291      0.376853
      0.34415      6.14988     10.51358         0.039890      0.018208      0.118638
      0.22267      3.07751     15.38654         0.000250     -0.010028     -0.003303
     14.26743     12.91398     16.41915        -0.009729     -0.005508      0.005662
      5.00934      9.62393     13.70244         0.001503      0.009010     -0.006296
     21.42279     14.69170     13.34099         0.226275      0.222556     -0.529735
     12.18742      3.00159     11.45195         0.185306     -0.070025      0.535405
      9.80226      4.02449     15.81648        -0.000568      0.001576     -0.008908
      1.95373      3.52197     10.94102         0.070680     -0.107062      0.133448
     16.43234      1.81267     13.10088         0.076003     -0.066750     -0.274423
     15.56990     17.27355     11.76084        -0.467020      4.536579     -0.164858
     15.21965     10.13359     11.56390         0.085442      0.046971      0.296783
      4.64622     17.53531     12.47363        -0.716567      6.163904     -0.308505
      5.01260      7.64565     16.22144        -0.003449      0.008491      0.008831
     15.76756     15.74375     15.97751        -0.006129     -0.000651      0.002641
      5.06550     12.62419     14.47939         0.003055     -0.007477     -0.005069
      8.63383     14.32142     12.34509        -0.222910     -0.105227      0.290037
     18.66399     17.09657     16.00634        -0.004156     -0.008303      0.014762
     20.58994     17.52830     13.76290         0.005809      0.002093      0.002255
     13.47472     11.39572     13.74544         0.003372     -0.003480      0.000948
     13.80654      3.08199     14.12302        -0.004845     -0.001537      0.002889
     20.08975      3.75648     13.31200        -0.148024      0.006768     -0.411283
     19.56863     11.94442     17.35424        -0.000590     -0.002421      0.006388
      3.13099      7.52942      9.59393        -0.085526     -0.125128      0.115494
     18.51026      6.07285     11.87902        -0.272700      0.115886      0.135019
      9.34523      4.21643     10.64590        -0.138812     -0.302091      0.276463
     20.04599     14.59535     16.03717        -0.005836     -0.006715      0.002980
      6.62158     17.91310     14.77155         0.003578      0.003590     -0.003824
      0.54021      6.98812     13.50205         0.222387      0.192175     -0.324412
     13.45118     13.60314     11.70944         3.917093     -0.877470     -2.416919
      5.39024     14.63805     12.15046         0.105254     -0.591703      0.076862
     13.90367      6.14003     14.74011         0.006351     -0.002953      0.008190
     22.83302      5.93708     16.19738        -0.002419      0.011643      0.003578
     20.81045      1.46044     11.40393         0.010748      0.034463      0.170038
      2.45413      4.53813     13.92009         0.005933      0.002649      0.002900
      1.12715     14.28354     12.97472        -0.183841     -0.585659     -0.197945
      5.43236      4.72696     15.08059         0.006637     -0.001661     -0.003665
     13.14328      5.67139     10.24864         8.363258     -5.340893     -3.510523
     11.18304     12.28181     16.75896        -0.006388     -0.002093     -0.003205
      6.56894     14.95780     16.07246        -0.009399      0.004554     -0.002572
      4.88127     12.65920      9.99509         0.082473     -0.068958      0.076607
     17.33762     13.88185     14.40673        -0.009491      0.003553      0.001612
     23.09133      0.82407     14.79562        -0.000039     -0.017949      0.015834
     16.46059     14.35206     11.67438        -0.677655     -1.346717      0.429440
     18.45024      2.07441     15.50312         0.006600     -0.015824      0.004889
     10.68290      6.95195     11.00304        -1.138746      0.533020      0.532976
     10.54923     17.89934     15.99015        -0.001544     -0.003474      0.003158
     11.91601      1.69458     15.75028        -0.007401     -0.007740     -0.006386
      5.71814      7.71222     11.31648         0.041323     -0.121768     -0.066485
     15.41693      6.98005     12.10687        -0.126678     -0.458698     -0.762773
     10.77633      6.73791     14.21495        -0.000907     -0.005044     -0.000330
      7.89661     11.69049     10.72869        -0.116136     -0.057723      0.022219
     18.81020      9.64862     15.58427         0.001940      0.001831     -0.004388
      1.62029     17.28844     12.91761        -0.345286      6.446055     -0.505880
      4.96103      3.61769     10.04353        -0.097219     -0.044635      0.135674
      1.83153      9.95162     13.29887         0.009992     -0.153680     -0.277159
     13.05344     16.44546     12.76235       -22.297137    -15.882767      4.742213
     16.82034     11.60336     16.39493        -0.007075     -0.001260     -0.006651
      6.71066      4.80730     12.34244        -0.206413      0.038955     -0.771114
      2.05389     12.32969     15.26511        -0.008141     -0.005631     -0.006044
      8.29543      1.29131     15.53946         0.000807      0.003444      0.004057
     11.37778      9.69017     15.31007        -0.008541     -0.002566     -0.006506
     11.84897      9.77808     18.59656        -0.004283     -0.012853     -0.009096
 -----------------------------------------------------------------------------------
    total drift:                               -0.899548     -0.181034      0.005408


--------------------------------------------------------------------------------------------------------



  FREE ENERGIE OF THE ION-ELECTRON SYSTEM (eV)
  ---------------------------------------------------
  free  energy   TOTEN  =     -1894.94891070 eV

  energy  without entropy=    -1894.94891070  energy(sigma->0) =    -1894.94891070

 d Force = 0.9621002E-03[ 0.237E-03, 0.169E-02]  d Energy = 0.9438238E-03 0.183E-04
 d Force = 0.3382924E+00[ 0.335E+00, 0.341E+00]  d Ewald  = 0.3382922E+00 0.183E-06


--------------------------------------------------------------------------------------------------------


    POTLOK:  cpu time    0.8525: real time    0.8552


--------------------------------------------------------------------------------------------------------


 stress matrix after NEB project (eV)
    -32.52232      0.14499      0.32283
      0.14499    -33.57985     -0.16009
      0.32283     -0.16009    -25.59579
  FORCES: max atom, RMS     0.040312    0.012063
  FORCE total and by dimension    0.200768    0.038296
  Stress total and by dimension   53.298717   33.579846
 Quasi-Newton relaxation of ions (Broydens 2nd method)
  g(Force)  = 0.194E-02   g(Stress)= 0.000E+00

 retain information from N=  1 steps
 eigenvalues of (default step * inverse Hessian matrix)
  average eigenvalue of G=   0.2312
 eigenvalue spectrum of G is  0.2312


--------------------------------------------------------------------------------------------------------


  
 reached required accuracy - stopping structural energy minimisation
     LOOP+:  cpu time  182.2073: real time  182.9241
    4ORBIT:  cpu time    0.0000: real time    0.0000

 total amount of memory used by VASP MPI-rank0   703397. kBytes
=======================================================================

   base      :      30000. kBytes
   nonlr-proj:      17046. kBytes
   fftplans  :      30982. kBytes
   grid      :      57864. kBytes
   one-center:       1088. kBytes
   wavefun   :     566417. kBytes

  
  
 General timing and accounting informations for this job:
 ========================================================
  
                  Total CPU time used (sec):     2755.249
                            User time (sec):     2750.559
                          System time (sec):        4.689
                         Elapsed time (sec):     2766.696
  
                   Maximum memory used (kb):      999564.
                   Average memory used (kb):           0.
  
                          Minor page faults:      6933433
                          Major page faults:          120
                 Voluntary context switches:         6604
