ESCALE ; pCOOP file generated by LOBSTER. Energy is shifted such that the Fermi level lies at 0 eV.
        18          1        801  -2.22918e+01   1.77583e+01  -2.26677e+00 
Average
No.1:C1->Si275(4.383385316184639)
No.1:C1[2s]->Si275[3s](4.383385316184639)
No.1:C1[2s]->Si275[3p_y](4.383385316184639)
No.1:C1[2s]->Si275[3p_z](4.383385316184639)
No.1:C1[2s]->Si275[3p_x](4.383385316184639)
No.1:C1[2p_y]->Si275[3s](4.383385316184639)
No.1:C1[2p_y]->Si275[3p_y](4.383385316184639)
No.1:C1[2p_y]->Si275[3p_z](4.383385316184639)
No.1:C1[2p_y]->Si275[3p_x](4.383385316184639)
No.1:C1[2p_z]->Si275[3s](4.383385316184639)
No.1:C1[2p_z]->Si275[3p_y](4.383385316184639)
No.1:C1[2p_z]->Si275[3p_z](4.383385316184639)
No.1:C1[2p_z]->Si275[3p_x](4.383385316184639)
No.1:C1[2p_x]->Si275[3s](4.383385316184639)
No.1:C1[2p_x]->Si275[3p_y](4.383385316184639)
No.1:C1[2p_x]->Si275[3p_z](4.383385316184639)
No.1:C1[2p_x]->Si275[3p_x](4.383385316184639)
-20.02503   0.00000   0.00010   0.00000   0.00010   0.00000   0.00001   0.00000   0.00000   0.00000   0.00001   0.00000  -0.00001   0.00000  -0.00000   0.00000   0.00000   0.00000  -0.00000   0.00000   0.00000   0.00000   0.00003   0.00000   0.00000   0.00000   0.00002   0.00000   0.00000   0.00000   0.00001   0.00000  -0.00000   0.00000   0.00001   0.00000   0.00000
-19.97497   0.00048   0.00013   0.00048   0.00013   0.00002   0.00001   0.00000   0.00000   0.00012   0.00002   0.00003  -0.00000   0.00000  -0.00000  -0.00000   0.00000   0.00000   0.00000   0.00000   0.00000   0.00004   0.00004   0.00000   0.00000   0.00019   0.00003   0.00005   0.00000   0.00001   0.00001   0.00000  -0.00000   0.00003   0.00001  -0.00000   0.00000
-19.92491   0.00054   0.00015   0.00054   0.00015   0.00002   0.00001   0.00000   0.00000   0.00014   0.00003   0.00004  -0.00000   0.00000  -0.00000  -0.00000   0.00000   0.00000   0.00000   0.00000   0.00000   0.00005   0.00004   0.00000   0.00000   0.00021   0.00004   0.00005   0.00001   0.00001   0.00001   0.00000  -0.00000   0.00003   0.00001  -0.00000   0.00000
-19.87484   0.00054   0.00018   0.00054   0.00018   0.00002   0.00001   0.00000   0.00000   0.00014   0.00003   0.00004   0.00000   0.00000  -0.00000  -0.00000   0.00000   0.00000   0.00000   0.00000   0.00000   0.00005   0.00004   0.00000   0.00000   0.00020   0.00005   0.00005   0.00001   0.00001   0.00001   0.00000   0.00000   0.00003   0.00002  -0.00000   0.00000
-19.82478   0.00048   0.00020   0.00048   0.00020   0.00002   0.00001   0.00000   0.00000   0.00013   0.00004   0.00003   0.00000   0.00000  -0.00000  -0.00000   0.00000   0.00000   0.00000   0.00000   0.00000   0.00004   0.00004   0.00000   0.00000   0.00018   0.00006   0.00005   0.00001   0.00000   0.00001   0.00000   0.00000   0.00003   0.00002  -0.00000   0.00000
-19.77472   0.00037   0.00022   0.00037   0.00022   0.00001   0.00001   0.00000   0.00000   0.00010   0.00004   0.00002   0.00000   0.00000   0.00000  -0.00000   0.00000   0.00000   0.00000   0.00000   0.00000   0.00003   0.00004   0.00000   0.00000   0.00014   0.00007   0.00004   0.00001   0.00000   0.00001   0.00000   0.00000   0.00002   0.00002  -0.00000   0.00000
-19.72466   0.00026   0.00024   0.00026   0.00024   0.00001   0.00001   0.00000   0.00000   0.00007   0.00005   0.00002   0.00000   0.00000   0.00000  -0.00000   0.00000   0.00000   0.00000   0.00000   0.00000   0.00002   0.00005   0.00000   0.00000   0.00009   0.00008   0.00003   0.00001   0.00000   0.00001   0.00000   0.00000   0.00001   0.00002  -0.00000   0.00000
-19.67459   0.00016   0.00024   0.00016   0.00024   0.00001   0.00001   0.00000   0.00000   0.00004   0.00005   0.00001   0.00000   0.00000   0.00000  -0.00000   0.00000   0.00000   0.00000   0.00000   0.00000   0.00001   0.00005   0.00000   0.00000   0.00006   0.00008   0.00002   0.00001   0.00000   0.00001   0.00000   0.00000   0.00001   0.00002  -0.00000   0.00000
-19.62453   0.00008   0.00025   0.00008   0.00025   0.00000   0.00001   0.00000   0.00000   0.00002   0.00005   0.00001   0.00000   0.00000   0.00000  -0.00000   0.00000   0.00000   0.00000   0.00000   0.00000   0.00001   0.00005   0.00000   0.00000   0.00003   0.00008   0.00001   0.00002   0.00000   0.00001   0.00000   0.00000   0.00000   0.00002  -0.00000   0.00000
-19.57447   0.00004   0.00025   0.00004   0.00025   0.00000   0.00001   0.00000   0.00000   0.00001   0.00005   0.00000   0.00000   0.00000   0.00000  -0.00000   0.00000   0.00000   0.00000   0.00000   0.00000   0.00000   0.00005   0.00000   0.00000   0.00001   0.00008   0.00000   0.00002   0.00000   0.00001   0.00000   0.00000   0.00000   0.00002  -0.00000   0.00000
-19.52441   0.00001   0.00025   0.00001   0.00025   0.00000   0.00001  -0.00000   0.00000   0.00000   0.00005   0.00000   0.00000   0.00000   0.00000  -0.00000   0.00000   0.00000   0.00000   0.00000   0.00000   0.00000   0.00005   0.00000   0.00000   0.00001   0.00008   0.00000   0.00002   0.00000   0.00001   0.00000   0.00000   0.00000   0.00002  -0.00000   0.00000
-19.47434   0.00000   0.00025   0.00000   0.00025  -0.00000   0.00001  -0.00000   0.00000  -0.00000   0.00005  -0.00000   0.00000   0.00000   0.00000  -0.00000   0.00000   0.00000   0.00000   0.00000   0.00000   0.00000   0.00005   0.00000   0.00000   0.00000   0.00008   0.00000   0.00002   0.00000   0.00001   0.00000   0.00000   0.00000   0.00002  -0.00000   0.00000
-19.42428  -0.00001   0.00025  -0.00001   0.00025  -0.00000   0.00001  -0.00000   0.00000  -0.00001   0.00005  -0.00000   0.00000   0.00000   0.00000  -0.00000   0.00000   0.00000   0.00000   0.00000   0.00000   0.00000   0.00005  -0.00000   0.00000   0.00000   0.00008   0.00000   0.00002   0.00000   0.00001   0.00000   0.00000   0.00000   0.00002  -0.00000   0.00000
-19.37422  -0.00002   0.00025  -0.00002   0.00025  -0.00000   0.00001  -0.00000   0.00000  -0.00001   0.00005  -0.00000   0.00000   0.00000   0.00000  -0.00000   0.00000   0.00000   0.00000   0.00000   0.00000  -0.00000   0.00005  -0.00000   0.00000  -0.00000   0.00008  -0.00000   0.00002   0.00000   0.00001   0.00000   0.00000   0.00000   0.00002  -0.00000   0.00000
-19.32416  -0.00002   0.00025  -0.00002   0.00025  -0.00000   0.00001  -0.00000   0.00000  -0.00002   0.00005  -0.00000   0.00000   0.00000   0.00000  -0.00000   0.00000   0.00000   0.00000   0.00000   0.00000  -0.00000   0.00005  -0.00000   0.00000  -0.00000   0.00008  -0.00000   0.00002   0.00000   0.00001   0.00000   0.00000   0.00000   0.00002  -0.00000   0.00000
-19.27409  -0.00003   0.00025  -0.00003   0.00025  -0.00000   0.00001  -0.00000   0.00000  -0.00002   0.00005  -0.00000   0.00000   0.00000   0.00000  -0.00000   0.00000   0.00000   0.00000   0.00000   0.00000  -0.00000   0.00005  -0.00000   0.00000  -0.00000   0.00008  -0.00000   0.00002   0.00000   0.00001   0.00000   0.00000   0.00000   0.00002  -0.00000   0.00000
-19.22403  -0.00004   0.00025  -0.00004   0.00025  -0.00000   0.00001  -0.00000   0.00000  -0.00002   0.00005  -0.00000   0.00000   0.00000   0.00000  -0.00000   0.00000   0.00000   0.00000   0.00000   0.00000  -0.00000   0.00005  -0.00000   0.00000  -0.00000   0.00008  -0.00000   0.00002   0.00000   0.00001   0.00000   0.00000   0.00000   0.00002  -0.00000   0.00000
-19.17397  -0.00004   0.00024  -0.00004   0.00024  -0.00000   0.00001  -0.00000   0.00000  -0.00003   0.00005  -0.00000   0.00000   0.00000   0.00000  -0.00000   0.00000   0.00000   0.00000   0.00000   0.00000  -0.00000   0.00005  -0.00000   0.00000  -0.00000   0.00008  -0.00000   0.00002   0.00000   0.00001   0.00000   0.00000   0.00000   0.00002  -0.00000   0.00000
-19.12390  -0.00003   0.00024  -0.00003   0.00024  -0.00000   0.00001  -0.00000   0.00000  -0.00002   0.00004  -0.00000   0.00000   0.00000   0.00000  -0.00000   0.00000   0.00000   0.00000   0.00000   0.00000  -0.00000   0.00005  -0.00000   0.00000  -0.00000   0.00008  -0.00000   0.00002   0.00000   0.00001   0.00000   0.00000   0.00000   0.00002  -0.00000   0.00000
-19.07384  -0.00003   0.00024  -0.00003   0.00024  -0.00000   0.00001  -0.00000   0.00000  -0.00002   0.00004  -0.00000   0.00000   0.00000   0.00000  -0.00000   0.00000   0.00000   0.00000   0.00000   0.00000  -0.00000   0.00005  -0.00000   0.00000  -0.00000   0.00008  -0.00000   0.00002   0.00000   0.00001   0.00000   0.00000   0.00000   0.00002  -0.00000   0.00000
-19.02378  -0.00002   0.00024  -0.00002   0.00024  -0.00000   0.00001  -0.00000   0.00000  -0.00001   0.00004  -0.00000   0.00000   0.00000   0.00000  -0.00000   0.00000   0.00000   0.00000   0.00000   0.00000  -0.00000   0.00005  -0.00000   0.00000  -0.00000   0.00008  -0.00000   0.00002   0.00000   0.00001   0.00000   0.00000   0.00000   0.00002  -0.00000   0.00000
-18.97372  -0.00001   0.00024  -0.00001   0.00024  -0.00000   0.00001  -0.00000   0.00000  -0.00001   0.00004  -0.00000   0.00000   0.00000   0.00000  -0.00000   0.00000   0.00000   0.00000   0.00000   0.00000  -0.00000   0.00005  -0.00000   0.00000  -0.00000   0.00008  -0.00000   0.00002   0.00000   0.00001   0.00000   0.00000   0.00000   0.00002  -0.00000   0.00000
-18.92365  -0.00001   0.00024  -0.00001   0.00024  -0.00000   0.00001  -0.00000   0.00000  -0.00000   0.00004  -0.00000   0.00000   0.00000   0.00000  -0.00000   0.00000   0.00000   0.00000   0.00000   0.00000  -0.00000   0.00005  -0.00000   0.00000  -0.00000   0.00008  -0.00000   0.00002   0.00000   0.00001   0.00000   0.00000   0.00000   0.00002  -0.00000   0.00000
-18.87359  -0.00000   0.00024  -0.00000   0.00024  -0.00000   0.00001  -0.00000   0.00000  -0.00000   0.00004  -0.00000   0.00000   0.00000   0.00000  -0.00000   0.00000   0.00000   0.00000   0.00000   0.00000  -0.00000   0.00005  -0.00000   0.00000  -0.00000   0.00008  -0.00000   0.00002   0.00000   0.00001   0.00000   0.00000   0.00000   0.00002  -0.00000   0.00000
-18.82353  -0.00000   0.00024  -0.00000   0.00024  -0.00000   0.00001  -0.00000   0.00000  -0.00000   0.00004  -0.00000   0.00000   0.00000   0.00000  -0.00000   0.00000   0.00000   0.00000   0.00000   0.00000  -0.00000   0.00005  -0.00000   0.00000  -0.00000   0.00008  -0.00000   0.00002   0.00000   0.00001   0.00000   0.00000   0.00000   0.00002  -0.00000   0.00000
-18.77347  -0.00000   0.00024  -0.00000   0.00024  -0.00000   0.00001  -0.00000   0.00000  -0.00000   0.00004  -0.00000   0.00000   0.00000   0.00000  -0.00000   0.00000   0.00000   0.00000   0.00000   0.00000  -0.00000   0.00005  -0.00000   0.00000  -0.00000   0.00008  -0.00000   0.00002   0.00000   0.00001   0.00000   0.00000   0.00000   0.00002  -0.00000   0.00000
-18.72340  -0.00000   0.00024  -0.00000   0.00024  -0.00000   0.00001  -0.00000   0.00000  -0.00000   0.00004  -0.00000   0.00000   0.00000   0.00000  -0.00000   0.00000   0.00000   0.00000   0.00000   0.00000  -0.00000   0.00005  -0.00000   0.00000  -0.00000   0.00008  -0.00000   0.00002   0.00000   0.00001   0.00000   0.00000   0.00000   0.00002  -0.00000   0.00000
-18.67334  -0.00000   0.00024  -0.00000   0.00024  -0.00000   0.00001  -0.00000   0.00000  -0.00000   0.00004  -0.00000   0.00000   0.00000   0.00000  -0.00000   0.00000   0.00000   0.00000   0.00000   0.00000  -0.00000   0.00005  -0.00000   0.00000  -0.00000   0.00008  -0.00000   0.00002   0.00000   0.00001   0.00000   0.00000   0.00000   0.00002  -0.00000   0.00000
-18.62328  -0.00000   0.00024  -0.00000   0.00024  -0.00000   0.00001  -0.00000   0.00000  -0.00000   0.00004  -0.00000   0.00000   0.00000   0.00000  -0.00000   0.00000   0.00000   0.00000   0.00000   0.00000  -0.00000   0.00005  -0.00000   0.00000  -0.00000   0.00008  -0.00000   0.00002   0.00000   0.00001   0.00000   0.00000   0.00000   0.00002  -0.00000   0.00000
-18.57322  -0.00000   0.00024  -0.00000   0.00024  -0.00000   0.00001  -0.00000   0.00000  -0.00000   0.00004  -0.00000   0.00000   0.00000   0.00000  -0.00000   0.00000   0.00000   0.00000   0.00000   0.00000  -0.00000   0.00005  -0.00000   0.00000  -0.00000   0.00008  -0.00000   0.00002   0.00000   0.00001   0.00000   0.00000   0.00000   0.00002  -0.00000   0.00000
-18.52315  -0.00000   0.00024  -0.00000   0.00024  -0.00000   0.00001  -0.00000   0.00000  -0.00000   0.00004  -0.00000   0.00000   0.00000   0.00000  -0.00000   0.00000   0.00000   0.00000   0.00000   0.00000  -0.00000   0.00005  -0.00000   0.00000  -0.00000   0.00008  -0.00000   0.00002   0.00000   0.00001   0.00000   0.00000   0.00000   0.00002  -0.00000   0.00000
-18.47309  -0.00000   0.00024  -0.00000   0.00024  -0.00000   0.00001  -0.00000   0.00000  -0.00000   0.00004  -0.00000   0.00000   0.00000   0.00000  -0.00000   0.00000   0.00000   0.00000   0.00000   0.00000  -0.00000   0.00005  -0.00000   0.00000  -0.00000   0.00008  -0.00000   0.00002   0.00000   0.00001   0.00000   0.00000   0.00000   0.00002  -0.00000   0.00000
-18.42303  -0.00000   0.00024  -0.00000   0.00024  -0.00000   0.00001  -0.00000   0.00000  -0.00000   0.00004  -0.00000   0.00000   0.00000   0.00000  -0.00000   0.00000   0.00000   0.00000   0.00000   0.00000  -0.00000   0.00005  -0.00000   0.00000  -0.00000   0.00008  -0.00000   0.00002   0.00000   0.00001   0.00000   0.00000   0.00000   0.00002  -0.00000   0.00000
-18.37297  -0.00000   0.00024  -0.00000   0.00024  -0.00000   0.00001  -0.00000   0.00000  -0.00000   0.00004  -0.00000   0.00000   0.00000   0.00000  -0.00000   0.00000   0.00000   0.00000   0.00000   0.00000  -0.00000   0.00005  -0.00000   0.00000  -0.00000   0.00008  -0.00000   0.00002   0.00000   0.00001   0.00000   0.00000   0.00000   0.00002  -0.00000   0.00000
-18.32290  -0.00000   0.00024  -0.00000   0.00024  -0.00000   0.00001  -0.00000   0.00000  -0.00000   0.00004  -0.00000   0.00000   0.00000   0.00000  -0.00000   0.00000   0.00000   0.00000   0.00000   0.00000  -0.00000   0.00005  -0.00000   0.00000  -0.00000   0.00008  -0.00000   0.00002   0.00000   0.00001   0.00000   0.00000   0.00000   0.00002  -0.00000   0.00000
-18.27284  -0.00000   0.00024  -0.00000   0.00024  -0.00000   0.00001  -0.00000   0.00000  -0.00000   0.00004  -0.00000   0.00000   0.00000   0.00000  -0.00000   0.00000   0.00000   0.00000   0.00000   0.00000  -0.00000   0.00005  -0.00000   0.00000  -0.00000   0.00008  -0.00000   0.00002   0.00000   0.00001   0.00000   0.00000   0.00000   0.00002  -0.00000   0.00000
-18.22278  -0.00000   0.00024  -0.00000   0.00024  -0.00000   0.00001  -0.00000   0.00000  -0.00000   0.00004  -0.00000   0.00000   0.00000   0.00000  -0.00000   0.00000   0.00000   0.00000   0.00000   0.00000  -0.00000   0.00005  -0.00000   0.00000  -0.00000   0.00008  -0.00000   0.00002   0.00000   0.00001   0.00000   0.00000   0.00000   0.00002  -0.00000   0.00000
-18.17272  -0.00000   0.00024  -0.00000   0.00024  -0.00000   0.00001  -0.00000   0.00000  -0.00000   0.00004  -0.00000   0.00000   0.00000   0.00000  -0.00000   0.00000   0.00000   0.00000   0.00000   0.00000  -0.00000   0.00005  -0.00000   0.00000  -0.00000   0.00008  -0.00000   0.00002   0.00000   0.00001   0.00000   0.00000   0.00000   0.00002  -0.00000   0.00000
-18.12265  -0.00000   0.00024  -0.00000   0.00024  -0.00000   0.00001  -0.00000   0.00000  -0.00000   0.00004  -0.00000   0.00000   0.00000   0.00000  -0.00000   0.00000   0.00000   0.00000   0.00000   0.00000  -0.00000   0.00005  -0.00000   0.00000  -0.00000   0.00008  -0.00000   0.00002   0.00000   0.00001   0.00000   0.00000   0.00000   0.00002  -0.00000   0.00000
-18.07259  -0.00000   0.00024  -0.00000   0.00024  -0.00000   0.00001  -0.00000   0.00000  -0.00000   0.00004  -0.00000   0.00000   0.00000   0.00000  -0.00000   0.00000   0.00000   0.00000   0.00000   0.00000   0.00000   0.00005  -0.00000   0.00000  -0.00000   0.00008   0.00000   0.00002   0.00000   0.00001   0.00000   0.00000   0.00000   0.00002  -0.00000   0.00000
-18.02253  -0.00000   0.00024  -0.00000   0.00024   0.00000   0.00001  -0.00000   0.00000   0.00000   0.00004   0.00000   0.00000   0.00000   0.00000   0.00000   0.00000   0.00000   0.00000   0.00000   0.00000   0.00000   0.00005   0.00000   0.00000   0.00000   0.00008   0.00000   0.00002   0.00000   0.00001   0.00000   0.00000   0.00000   0.00002  -0.00000   0.00000
-17.97247   0.00000   0.00024   0.00000   0.00024   0.00000   0.00001   0.00000   0.00000   0.00000   0.00004   0.00000   0.00000   0.00000   0.00000   0.00000   0.00000   0.00000   0.00000   0.00000   0.00000   0.00000   0.00005   0.00000   0.00000   0.00000   0.00008   0.00000   0.00002   0.00000   0.00001   0.00000   0.00000   0.00000   0.00002   0.00000   0.00000
-17.92240   0.00000   0.00024   0.00000   0.00024   0.00000   0.00001   0.00000   0.00000   0.00000   0.00004   0.00000   0.00000   0.00000   0.00000   0.00000   0.00000   0.00000   0.00000   0.00000   0.00000   0.00000   0.00005   0.00000   0.00000   0.00000   0.00008   0.00000   0.00002   0.00000   0.00001   0.00000   0.00000   0.00000   0.00002   0.00000   0.00000
-17.87234   0.00000   0.00024   0.00000   0.00024   0.00000   0.00001   0.00000   0.00000   0.00000   0.00004   0.00000   0.00000   0.00000   0.00000   0.00000   0.00000   0.00000   0.00000   0.00000   0.00000   0.00000   0.00005   0.00000   0.00000   0.00000   0.00008   0.00000   0.00002   0.00000   0.00001   0.00000   0.00000   0.00000   0.00002   0.00000   0.00000
-17.82228   0.00000   0.00024   0.00000   0.00024   0.00000   0.00001   0.00000   0.00000   0.00000   0.00004   0.00000   0.00000   0.00000   0.00000   0.00000   0.00000   0.00000   0.00000   0.00000   0.00000   0.00000   0.00005   0.00000   0.00000   0.00000   0.00008   0.00000   0.00002   0.00000   0.00001   0.00000   0.00000   0.00000   0.00002   0.00000   0.00000
-17.77222   0.00000   0.00024   0.00000   0.00024   0.00000   0.00001   0.00000   0.00000   0.00000   0.00004   0.00000   0.00000   0.00000   0.00000   0.00000   0.00000   0.00000   0.00000   0.00000   0.00000   0.00000   0.00005   0.00000   0.00000   0.00000   0.00008   0.00000   0.00002   0.00000   0.00001   0.00000   0.00000   0.00000   0.00002   0.00000   0.00000
-17.72215   0.00000   0.00024   0.00000   0.00024   0.00000   0.00001   0.00000   0.00000   0.00000   0.00004   0.00000   0.00000   0.00000   0.00000   0.00000   0.00000   0.00000   0.00000   0.00000   0.00000   0.00000   0.00005   0.00000   0.00000   0.00000   0.00008   0.00000   0.00002   0.00000   0.00001   0.00000   0.00000   0.00000   0.00002   0.00000   0.00000
-17.67209   0.00000   0.00024   0.00000   0.00024   0.00000   0.00001   0.00000   0.00000   0.00000   0.00004   0.00000   0.00000   0.00000   0.00000   0.00000   0.00000   0.00000   0.00000   0.00000   0.00000   0.00000   0.00005   0.00000   0.00000   0.00000   0.00008   0.00000   0.00002   0.00000   0.00001   0.00000   0.00000   0.00000   0.00002   0.00000   0.00000
-17.62203   0.00000   0.00024   0.00000   0.00024   0.00000   0.00001   0.00000   0.00000   0.00000   0.00004   0.00000   0.00000   0.00000   0.00000   0.00000   0.00000   0.00000   0.00000   0.00000   0.00000   0.00000   0.00005   0.00000   0.00000   0.00000   0.00008   0.00000   0.00002   0.00000   0.00001   0.00000   0.00000   0.00000   0.00002   0.00000   0.00000
-17.57196   0.00000   0.00024   0.00000   0.00024   0.00000   0.00001   0.00000   0.00000   0.00000   0.00004   0.00000   0.00000   0.00000   0.00000   0.00000   0.00000   0.00000   0.00000   0.00000   0.00000   0.00000   0.00005   0.00000   0.00000   0.00000   0.00008   0.00000   0.00002   0.00000   0.00001   0.00000   0.00000   0.00000   0.00002   0.00000   0.00000
-17.52190   0.00000   0.00024   0.00000   0.00024   0.00000   0.00001   0.00000   0.00000   0.00000   0.00004   0.00000   0.00000   0.00000   0.00000   0.00000   0.00000   0.00000   0.00000   0.00000   0.00000   0.00000   0.00005   0.00000   0.00000   0.00000   0.00008   0.00000   0.00002   0.00000   0.00001   0.00000   0.00000   0.00000   0.00002   0.00000   0.00000
-17.47184   0.00000   0.00024   0.00000   0.00024   0.00000   0.00001   0.00000   0.00000   0.00000   0.00004   0.00000   0.00000   0.00000   0.00000   0.00000   0.00000   0.00000   0.00000   0.00000   0.00000   0.00000   0.00005   0.00000   0.00000   0.00000   0.00008   0.00000   0.00002   0.00000   0.00001   0.00000   0.00000   0.00000   0.00002   0.00000   0.00000
-17.42178   0.00000   0.00024   0.00000   0.00024   0.00000   0.00001   0.00000   0.00000   0.00000   0.00004   0.00000   0.00000   0.00000   0.00000   0.00000   0.00000   0.00000   0.00000   0.00000   0.00000   0.00000   0.00005   0.00000   0.00000   0.00000   0.00008   0.00000   0.00002   0.00000   0.00001   0.00000   0.00000   0.00000   0.00002   0.00000   0.00000
-17.37171   0.00000   0.00024   0.00000   0.00024   0.00000   0.00001   0.00000   0.00000   0.00000   0.00004   0.00000   0.00000   0.00000   0.00000   0.00000   0.00000   0.00000   0.00000   0.00000   0.00000   0.00000   0.00005   0.00000   0.00000   0.00000   0.00008   0.00000   0.00002   0.00000   0.00001   0.00000   0.00000   0.00000   0.00002   0.00000   0.00000
-17.32165   0.00000   0.00024   0.00000   0.00024   0.00000   0.00001   0.00000   0.00000   0.00000   0.00004   0.00000   0.00000   0.00000   0.00000   0.00000   0.00000   0.00000   0.00000   0.00000   0.00000   0.00000   0.00005   0.00000   0.00000   0.00000   0.00008   0.00000   0.00002   0.00000   0.00001   0.00000   0.00000   0.00000   0.00002   0.00000   0.00000
-17.27159   0.00000   0.00024   0.00000   0.00024   0.00000   0.00001   0.00000   0.00000   0.00000   0.00004   0.00000   0.00000   0.00000   0.00000   0.00000   0.00000   0.00000   0.00000   0.00000   0.00000   0.00000   0.00005   0.00000   0.00000   0.00000   0.00008   0.00000   0.00002   0.00000   0.00001   0.00000   0.00000   0.00000   0.00002   0.00000   0.00000
-17.22153   0.00000   0.00024   0.00000   0.00024   0.00000   0.00001   0.00000   0.00000   0.00000   0.00004   0.00000   0.00000   0.00000   0.00000   0.00000   0.00000   0.00000   0.00000   0.00000   0.00000   0.00000   0.00005   0.00000   0.00000   0.00000   0.00008   0.00000   0.00002   0.00000   0.00001   0.00000   0.00000   0.00000   0.00002   0.00000   0.00000
-17.17146   0.00000   0.00024   0.00000   0.00024   0.00000   0.00001   0.00000   0.00000   0.00000   0.00004   0.00000   0.00000   0.00000   0.00000   0.00000   0.00000   0.00000   0.00000   0.00000   0.00000   0.00000   0.00005   0.00000   0.00000   0.00000   0.00008   0.00000   0.00002   0.00000   0.00001   0.00000   0.00000   0.00000   0.00002   0.00000   0.00000
-17.12140   0.00000   0.00024   0.00000   0.00024   0.00000   0.00001   0.00000   0.00000   0.00000   0.00004   0.00000   0.00000   0.00000   0.00000   0.00000   0.00000   0.00000   0.00000   0.00000   0.00000   0.00000   0.00005   0.00000   0.00000   0.00000   0.00008   0.00000   0.00002   0.00000   0.00001   0.00000   0.00000   0.00000   0.00002   0.00000   0.00000
-17.07134   0.00000   0.00024   0.00000   0.00024   0.00000   0.00001   0.00000   0.00000   0.00000   0.00004   0.00000   0.00000   0.00000   0.00000   0.00000   0.00000   0.00000   0.00000   0.00000   0.00000   0.00000   0.00005   0.00000   0.00000   0.00000   0.00008   0.00000   0.00002   0.00000   0.00001   0.00000   0.00000   0.00000   0.00002   0.00000   0.00000
-17.02128   0.00000   0.00024   0.00000   0.00024   0.00000   0.00001   0.00000   0.00000   0.00000   0.00004   0.00000   0.00000   0.00000   0.00000   0.00000   0.00000   0.00000   0.00000   0.00000   0.00000   0.00000   0.00005   0.00000   0.00000   0.00000   0.00008   0.00000   0.00002   0.00000   0.00001   0.00000   0.00000   0.00000   0.00002   0.00000   0.00000
-16.97121   0.00000   0.00024   0.00000   0.00024   0.00000   0.00001   0.00000   0.00000   0.00000   0.00004   0.00000   0.00000   0.00000   0.00000   0.00000   0.00000   0.00000   0.00000   0.00000   0.00000   0.00000   0.00005   0.00000   0.00000   0.00000   0.00008   0.00000   0.00002   0.00000   0.00001   0.00000   0.00000   0.00000   0.00002   0.00000   0.00000
-16.92115   0.00000   0.00024   0.00000   0.00024   0.00000   0.00001   0.00000   0.00000   0.00000   0.00004   0.00000   0.00000   0.00000   0.00000   0.00000   0.00000   0.00000   0.00000   0.00000   0.00000   0.00000   0.00005   0.00000   0.00000   0.00000   0.00008   0.00000   0.00002   0.00000   0.00001   0.00000   0.00000   0.00000   0.00002   0.00000   0.00000
-16.87109   0.00000   0.00024   0.00000   0.00024   0.00000   0.00001   0.00000   0.00000   0.00000   0.00004   0.00000   0.00000   0.00000   0.00000   0.00000   0.00000   0.00000   0.00000   0.00000   0.00000   0.00000   0.00005   0.00000   0.00000   0.00000   0.00008   0.00000   0.00002   0.00000   0.00001   0.00000   0.00000   0.00000   0.00002   0.00000   0.00000
-16.82103   0.00000   0.00024   0.00000   0.00024   0.00000   0.00001   0.00000   0.00000   0.00000   0.00004   0.00000   0.00000   0.00000   0.00000   0.00000   0.00000   0.00000   0.00000   0.00000   0.00000   0.00000   0.00005   0.00000   0.00000   0.00000   0.00008   0.00000   0.00002   0.00000   0.00001   0.00000   0.00000   0.00000   0.00002   0.00000   0.00000
-16.77096   0.00000   0.00024   0.00000   0.00024   0.00000   0.00001   0.00000   0.00000   0.00000   0.00004   0.00000   0.00000   0.00000   0.00000   0.00000   0.00000   0.00000   0.00000   0.00000   0.00000   0.00000   0.00005   0.00000   0.00000   0.00000   0.00008   0.00000   0.00002   0.00000   0.00001   0.00000   0.00000   0.00000   0.00002   0.00000   0.00000
-16.72090   0.00000   0.00024   0.00000   0.00024   0.00000   0.00001   0.00000   0.00000   0.00000   0.00004   0.00000   0.00000   0.00000   0.00000   0.00000   0.00000   0.00000   0.00000   0.00000   0.00000   0.00000   0.00005   0.00000   0.00000   0.00000   0.00008   0.00000   0.00002   0.00000   0.00001   0.00000   0.00000   0.00000   0.00002   0.00000   0.00000
-16.67084  -0.00000   0.00024  -0.00000   0.00024  -0.00000   0.00001   0.00000   0.00000   0.00000   0.00004  -0.00000   0.00000   0.00000   0.00000   0.00000   0.00000   0.00000   0.00000   0.00000   0.00000   0.00000   0.00005  -0.00000   0.00000   0.00000   0.00008   0.00000   0.00002   0.00000   0.00001   0.00000   0.00000   0.00000   0.00002   0.00000   0.00000
-16.62078  -0.00000   0.00024  -0.00000   0.00024  -0.00000   0.00001   0.00000   0.00000   0.00000   0.00004  -0.00000   0.00000   0.00000   0.00000   0.00000   0.00000  -0.00000   0.00000   0.00000   0.00000   0.00000   0.00005  -0.00000   0.00000   0.00000   0.00008   0.00000   0.00002  -0.00000   0.00001   0.00000   0.00000   0.00000   0.00002   0.00000   0.00000
-16.57071  -0.00000   0.00024  -0.00000   0.00024  -0.00000   0.00001   0.00000   0.00000   0.00000   0.00004  -0.00000   0.00000   0.00000   0.00000   0.00000   0.00000  -0.00000   0.00000   0.00000   0.00000   0.00000   0.00005  -0.00000   0.00000  -0.00000   0.00008   0.00000   0.00002  -0.00000   0.00001   0.00000   0.00000   0.00000   0.00002   0.00000   0.00000
-16.52065  -0.00000   0.00024  -0.00000   0.00024  -0.00000   0.00001   0.00000   0.00000   0.00000   0.00004  -0.00000   0.00000   0.00000   0.00000   0.00000   0.00000  -0.00000   0.00000   0.00000   0.00000   0.00000   0.00005  -0.00000   0.00000  -0.00000   0.00008   0.00000   0.00002  -0.00000   0.00001   0.00000   0.00000   0.00000   0.00002   0.00000   0.00000
-16.47059  -0.00000   0.00024  -0.00000   0.00024  -0.00000   0.00001   0.00000   0.00000   0.00000   0.00004  -0.00000   0.00000   0.00000   0.00000   0.00000   0.00000  -0.00000   0.00000   0.00000   0.00000   0.00000   0.00005  -0.00000   0.00000  -0.00000   0.00008   0.00000   0.00002  -0.00000   0.00001   0.00000   0.00000   0.00000   0.00002   0.00000   0.00000
-16.42053  -0.00000   0.00024  -0.00000   0.00024  -0.00000   0.00001   0.00000   0.00000   0.00000   0.00004  -0.00000   0.00000   0.00000   0.00000   0.00000   0.00000  -0.00000   0.00000   0.00000   0.00000   0.00000   0.00005  -0.00000   0.00000  -0.00000   0.00008   0.00000   0.00002  -0.00000   0.00001   0.00000   0.00000   0.00000   0.00002   0.00000   0.00000
-16.37046  -0.00000   0.00024  -0.00000   0.00024  -0.00000   0.00001   0.00000   0.00000   0.00000   0.00004  -0.00000   0.00000   0.00000   0.00000   0.00000   0.00000  -0.00000   0.00000   0.00000   0.00000   0.00000   0.00005  -0.00000   0.00000  -0.00000   0.00008   0.00000   0.00002  -0.00000   0.00001   0.00000   0.00000   0.00000   0.00002   0.00000   0.00000
-16.32040  -0.00000   0.00024  -0.00000   0.00024  -0.00000   0.00001   0.00000   0.00000   0.00000   0.00004  -0.00000   0.00000   0.00000   0.00000   0.00000   0.00000  -0.00000   0.00000   0.00000   0.00000   0.00000   0.00005  -0.00000   0.00000  -0.00000   0.00008   0.00000   0.00002  -0.00000   0.00001   0.00000   0.00000   0.00000   0.00002   0.00000   0.00000
-16.27034  -0.00000   0.00024  -0.00000   0.00024  -0.00000   0.00001   0.00000   0.00000   0.00000   0.00004  -0.00000   0.00000   0.00000   0.00000   0.00000   0.00000  -0.00000   0.00000   0.00000   0.00000   0.00000   0.00005  -0.00000   0.00000  -0.00000   0.00008   0.00000   0.00002  -0.00000   0.00001   0.00000   0.00000   0.00000   0.00002   0.00000   0.00000
-16.22028  -0.00000   0.00024  -0.00000   0.00024  -0.00000   0.00001   0.00000   0.00000   0.00000   0.00004  -0.00000   0.00000   0.00000   0.00000   0.00000   0.00000  -0.00000   0.00000   0.00000   0.00000   0.00000   0.00005  -0.00000   0.00000  -0.00000   0.00008   0.00000   0.00002  -0.00000   0.00001   0.00000   0.00000   0.00000   0.00002   0.00000   0.00000
-16.17021  -0.00000   0.00024  -0.00000   0.00024  -0.00000   0.00001   0.00000   0.00000   0.00000   0.00004  -0.00000   0.00000   0.00000   0.00000   0.00000   0.00000  -0.00000   0.00000   0.00000   0.00000   0.00000   0.00005  -0.00000   0.00000  -0.00000   0.00008   0.00000   0.00002  -0.00000   0.00001   0.00000   0.00000   0.00000   0.00002   0.00000   0.00000