 vasp.5.4.4.18Apr17-6-g9f103f2a35 (build Oct 20 2021 08:33:53) complex           
 executed on             LinuxGNU date 2024.03.19  22:01:57
 running on   32 total cores
 distrk:  each k-point on   32 cores,    1 groups
 distr:  one band on NCORES_PER_BAND=   4 cores,    8 groups


--------------------------------------------------------------------------------------------------------


 INCAR:
 POTCAR:    PAW_PBE C 08Apr2002                   
 POTCAR:    PAW_PBE H 15Jun2001                   
 POTCAR:    PAW_PBE O 08Apr2002                   
 POTCAR:    PAW_PBE Si 05Jan2001                  
 POTCAR:    PAW_PBE W 08Apr2002                   
 POTCAR:    PAW_PBE C 08Apr2002                   
   VRHFIN =C: s2p2                                                              
   LEXCH  = PE                                                                  
   EATOM  =   147.1560 eV,   10.8157 Ry                                         
                                                                                
   TITEL  = PAW_PBE C 08Apr2002                                                 
   LULTRA =        F    use ultrasoft PP ?                                      
   IUNSCR =        1    unscreen: 0-lin 1-nonlin 2-no                           
   RPACOR =    1.200    partial core radius                                     
   POMASS =   12.011; ZVAL   =    4.000    mass and valenz                      
   RCORE  =    1.500    outmost cutoff radius                                   
   RWIGS  =    1.630; RWIGS  =    0.863    wigner-seitz radius (au A)           
   ENMAX  =  400.000; ENMIN  =  300.000 eV                                      
   ICORE  =        2    local potential                                         
   LCOR   =        T    correct aug charges                                     
   LPAW   =        T    paw PP                                                  
   EAUG   =  644.873                                                            
   DEXC   =    0.000                                                            
   RMAX   =    1.529    core radius for proj-oper                               
   RAUG   =    1.300    factor for augmentation sphere                          
   RDEP   =    1.501    radius for radial grids                                 
   RDEPT  =    1.300    core radius for aug-charge                              
                                                                                
   Atomic configuration                                                         
    4 entries                                                                   
     n  l   j            E        occ.                                          
     1  0  0.50      -273.3789   2.0000                                         
     2  0  0.50       -13.7508   2.0000                                         
     2  1  0.50        -5.2854   2.0000                                         
     3  2  1.50        -5.4423   0.0000                                         
   Description                                                                  
     l       E           TYP  RCUT    TYP  RCUT                                 
     0    -13.7508458     23  1.200                                             
     0     -8.2022199     23  1.200                                             
     1     -5.2854383     23  1.500                                             
     1     34.0145650     23  1.500                                             
     2     -5.4423304      7  1.500                                             
  local pseudopotential read in
  partial core-charges read in
  partial kinetic energy density read in
  atomic valenz-charges read in
  non local Contribution for L=           0  read in
    real space projection operators read in
  non local Contribution for L=           0  read in
    real space projection operators read in
  non local Contribution for L=           1  read in
    real space projection operators read in
  non local Contribution for L=           1  read in
    real space projection operators read in
    PAW grid and wavefunctions read in

   number of l-projection  operators is LMAX  =           4
   number of lm-projection operators is LMMAX =           8

 POTCAR:    PAW_PBE H 15Jun2001                   
   VRHFIN =H: ultrasoft test                                                    
   LEXCH  = PE                                                                  
   EATOM  =    12.4884 eV,    0.9179 Ry                                         
                                                                                
   TITEL  = PAW_PBE H 15Jun2001                                                 
   LULTRA =        F    use ultrasoft PP ?                                      
   IUNSCR =        0    unscreen: 0-lin 1-nonlin 2-no                           
   RPACOR =    0.000    partial core radius                                     
   POMASS =    1.000; ZVAL   =    1.000    mass and valenz                      
   RCORE  =    1.100    outmost cutoff radius                                   
   RWIGS  =    0.700; RWIGS  =    0.370    wigner-seitz radius (au A)           
   ENMAX  =  250.000; ENMIN  =  200.000 eV                                      
   RCLOC  =    0.701    cutoff for local pot                                    
   LCOR   =        T    correct aug charges                                     
   LPAW   =        T    paw PP                                                  
   EAUG   =  400.000                                                            
   RMAX   =    1.123    core radius for proj-oper                               
   RAUG   =    1.200    factor for augmentation sphere                          
   RDEP   =    1.112    radius for radial grids                                 
   RDEPT  =    0.926    core radius for aug-charge                              
                                                                                
   Atomic configuration                                                         
    2 entries                                                                   
     n  l   j            E        occ.                                          
     1  0  0.50        -6.4927   1.0000                                         
     2  1  0.50        -3.4015   0.0000                                         
   Description                                                                  
     l       E           TYP  RCUT    TYP  RCUT                                 
     0     -6.4927494     23  1.100                                             
     0      6.8029130     23  1.100                                             
     1     -4.0817478     23  1.100                                             
  local pseudopotential read in
  atomic valenz-charges read in
  non local Contribution for L=           0  read in
    real space projection operators read in
  non local Contribution for L=           0  read in
    real space projection operators read in
  non local Contribution for L=           1  read in
    real space projection operators read in
    PAW grid and wavefunctions read in

   number of l-projection  operators is LMAX  =           3
   number of lm-projection operators is LMMAX =           5

 POTCAR:    PAW_PBE O 08Apr2002                   
   VRHFIN =O: s2p4                                                              
   LEXCH  = PE                                                                  
   EATOM  =   432.3788 eV,   31.7789 Ry                                         
                                                                                
   TITEL  = PAW_PBE O 08Apr2002                                                 
   LULTRA =        F    use ultrasoft PP ?                                      
   IUNSCR =        1    unscreen: 0-lin 1-nonlin 2-no                           
   RPACOR =    1.200    partial core radius                                     
   POMASS =   16.000; ZVAL   =    6.000    mass and valenz                      
   RCORE  =    1.520    outmost cutoff radius                                   
   RWIGS  =    1.550; RWIGS  =    0.820    wigner-seitz radius (au A)           
   ENMAX  =  400.000; ENMIN  =  300.000 eV                                      
   ICORE  =        2    local potential                                         
   LCOR   =        T    correct aug charges                                     
   LPAW   =        T    paw PP                                                  
   EAUG   =  605.392                                                            
   DEXC   =    0.000                                                            
   RMAX   =    1.553    core radius for proj-oper                               
   RAUG   =    1.300    factor for augmentation sphere                          
   RDEP   =    1.550    radius for radial grids                                 
   RDEPT  =    1.329    core radius for aug-charge                              
                                                                                
   Atomic configuration                                                         
    4 entries                                                                   
     n  l   j            E        occ.                                          
     1  0  0.50      -514.6923   2.0000                                         
     2  0  0.50       -23.9615   2.0000                                         
     2  1  0.50        -9.0305   4.0000                                         
     3  2  1.50        -9.5241   0.0000                                         
   Description                                                                  
     l       E           TYP  RCUT    TYP  RCUT                                 
     0    -23.9615318     23  1.200                                             
     0     -9.5240782     23  1.200                                             
     1     -9.0304911     23  1.520                                             
     1      8.1634956     23  1.520                                             
     2     -9.5240782      7  1.500                                             
  local pseudopotential read in
  partial core-charges read in
  partial kinetic energy density read in
  kinetic energy density of atom read in
  atomic valenz-charges read in
  non local Contribution for L=           0  read in
    real space projection operators read in
  non local Contribution for L=           0  read in
    real space projection operators read in
  non local Contribution for L=           1  read in
    real space projection operators read in
  non local Contribution for L=           1  read in
    real space projection operators read in
    PAW grid and wavefunctions read in

   number of l-projection  operators is LMAX  =           4
   number of lm-projection operators is LMMAX =           8

 POTCAR:    PAW_PBE Si 05Jan2001                  
   VRHFIN =Si: s2p2                                                             
   LEXCH  = PE                                                                  
   EATOM  =   103.0669 eV,    7.5752 Ry                                         
                                                                                
   TITEL  = PAW_PBE Si 05Jan2001                                                
   LULTRA =        F    use ultrasoft PP ?                                      
   IUNSCR =        1    unscreen: 0-lin 1-nonlin 2-no                           
   RPACOR =    1.500    partial core radius                                     
   POMASS =   28.085; ZVAL   =    4.000    mass and valenz                      
   RCORE  =    1.900    outmost cutoff radius                                   
   RWIGS  =    2.480; RWIGS  =    1.312    wigner-seitz radius (au A)           
   ENMAX  =  245.345; ENMIN  =  184.009 eV                                      
   ICORE  =        2    local potential                                         
   LCOR   =        T    correct aug charges                                     
   LPAW   =        T    paw PP                                                  
   EAUG   =  322.069                                                            
   DEXC   =    0.000                                                            
   RMAX   =    1.950    core radius for proj-oper                               
   RAUG   =    1.300    factor for augmentation sphere                          
   RDEP   =    1.993    radius for radial grids                                 
   RDEPT  =    1.837    core radius for aug-charge                              
                                                                                
   Atomic configuration                                                         
    6 entries                                                                   
     n  l   j            E        occ.                                          
     1  0  0.50     -1785.8828   2.0000                                         
     2  0  0.50      -139.4969   2.0000                                         
     2  1  1.50       -95.5546   6.0000                                         
     3  0  0.50       -10.8127   2.0000                                         
     3  1  0.50        -4.0811   2.0000                                         
     3  2  1.50        -4.0817   0.0000                                         
   Description                                                                  
     l       E           TYP  RCUT    TYP  RCUT                                 
     0    -10.8127223     23  1.900                                             
     0     -7.6451159     23  1.900                                             
     1     -4.0811372     23  1.900                                             
     1      2.4879257     23  1.900                                             
     2     -4.0817478      7  1.900                                             
  local pseudopotential read in
  partial core-charges read in
  partial kinetic energy density read in
  atomic valenz-charges read in
  non local Contribution for L=           0  read in
    real space projection operators read in
  non local Contribution for L=           0  read in
    real space projection operators read in
  non local Contribution for L=           1  read in
    real space projection operators read in
  non local Contribution for L=           1  read in
    real space projection operators read in
    PAW grid and wavefunctions read in

   number of l-projection  operators is LMAX  =           4
   number of lm-projection operators is LMMAX =           8

 POTCAR:    PAW_PBE W 08Apr2002                   
   VRHFIN =W : 6s5d                                                             
   LEXCH  = PE                                                                  
   EATOM  =   204.6103 eV,   15.0384 Ry                                         
                                                                                
   TITEL  = PAW_PBE W 08Apr2002                                                 
   LULTRA =        F    use ultrasoft PP ?                                      
   IUNSCR =        1    unscreen: 0-lin 1-nonlin 2-no                           
   RPACOR =    2.330    partial core radius                                     
   POMASS =  183.850; ZVAL   =    6.000    mass and valenz                      
   RCORE  =    2.750    outmost cutoff radius                                   
   RWIGS  =    2.750; RWIGS  =    1.455    wigner-seitz radius (au A)           
   ENMAX  =  223.057; ENMIN  =  167.293 eV                                      
   RCLOC  =    2.147    cutoff for local pot                                    
   LCOR   =        T    correct aug charges                                     
   LPAW   =        T    paw PP                                                  
   EAUG   =  373.438                                                            
   DEXC   =    0.000                                                            
   RMAX   =    2.801    core radius for proj-oper                               
   RAUG   =    1.300    factor for augmentation sphere                          
   RDEP   =    2.886    radius for radial grids                                 
   RDEPT  =    2.230    core radius for aug-charge                              
                                                                                
   Atomic configuration                                                         
   16 entries                                                                   
     n  l   j            E        occ.                                          
     1  0  0.50    -69465.5836   2.0000                                         
     2  0  0.50    -11986.2642   2.0000                                         
     2  1  1.50    -10479.8616   6.0000                                         
     3  0  0.50     -2759.0758   2.0000                                         
     3  1  1.50     -2313.1857   6.0000                                         
     3  2  2.50     -1801.1185  10.0000                                         
     4  0  0.50      -567.6791   2.0000                                         
     4  1  1.50      -421.4694   6.0000                                         
     4  2  2.50      -236.3473  10.0000                                         
     4  3  3.50       -31.2666  14.0000                                         
     5  0  0.50       -77.1085   2.0000                                         
     5  1  1.50       -41.3856   6.0000                                         
     5  2  2.50        -3.3185   5.0000                                         
     6  0  0.50        -5.1438   1.0000                                         
     6  1  0.50        -3.8096   0.0000                                         
     5  3  2.50        -1.3606   0.0000                                         
   Description                                                                  
     l       E           TYP  RCUT    TYP  RCUT                                 
     2     -3.3185288     23  2.500                                             
     2     -1.5965414     23  2.500                                             
     0     -5.1438054     23  2.500                                             
     0      4.9117504     23  2.500                                             
     1      2.7211652     23  2.750                                             
     1     27.2116520     23  2.750                                             
  local pseudopotential read in
  partial core-charges read in
  partial kinetic energy density read in
  atomic valenz-charges read in
  non local Contribution for L=           2  read in
    real space projection operators read in
  non local Contribution for L=           2  read in
    real space projection operators read in
  non local Contribution for L=           0  read in
    real space projection operators read in
  non local Contribution for L=           0  read in
    real space projection operators read in
  non local Contribution for L=           1  read in
    real space projection operators read in
  non local Contribution for L=           1  read in
    real space projection operators read in
    PAW grid and wavefunctions read in

   number of l-projection  operators is LMAX  =           6
   number of lm-projection operators is LMMAX =          18

 Optimization of the real space projectors (new method)

 maximal supplied QI-value         = 25.13
 optimisation between [QCUT,QGAM] = [ 11.31, 22.87] = [ 35.82,146.48] Ry 
 Optimized for a Real-space Cutoff    1.00 Angstroem

   l    n(q)    QCUT    max X(q) W(low)/X(q) W(high)/X(q)  e(spline) 
   0      7    11.310   115.676    0.43E-03    0.13E-02    0.19E-06
   0      7    11.310    87.132    0.43E-03    0.13E-02    0.18E-06
   1      6    11.310     4.429    0.42E-03    0.74E-03    0.11E-06
   1      6    11.310     2.733    0.34E-03    0.55E-03    0.92E-07
 Optimization of the real space projectors (new method)

 maximal supplied QI-value         = 34.20
 optimisation between [QCUT,QGAM] = [ 11.29, 22.57] = [ 35.68,142.71] Ry 
 Optimized for a Real-space Cutoff    1.16 Angstroem

   l    n(q)    QCUT    max X(q) W(low)/X(q) W(high)/X(q)  e(spline) 
   0      8    11.287    19.460    0.40E-03    0.73E-03    0.16E-06
   0      8    11.287    12.209    0.38E-03    0.70E-03    0.15E-06
   1      7    11.287     4.655    0.22E-03    0.25E-04    0.22E-06
 Optimization of the real space projectors (new method)

 maximal supplied QI-value         = 24.76
 optimisation between [QCUT,QGAM] = [ 11.39, 22.77] = [ 36.31,145.25] Ry 
 Optimized for a Real-space Cutoff    1.00 Angstroem

   l    n(q)    QCUT    max X(q) W(low)/X(q) W(high)/X(q)  e(spline) 
   0      7    11.387    20.381    0.39E-03    0.13E-02    0.15E-06
   0      7    11.387    15.268    0.42E-03    0.14E-02    0.17E-06
   1      6    11.387     5.964    0.41E-03    0.11E-02    0.17E-06
   1      6    11.387     5.382    0.39E-03    0.87E-03    0.15E-06
 Optimization of the real space projectors (new method)

 maximal supplied QI-value         = 19.84
 optimisation between [QCUT,QGAM] = [ 11.31, 22.82] = [ 35.82,145.81] Ry 
 Optimized for a Real-space Cutoff    1.16 Angstroem

   l    n(q)    QCUT    max X(q) W(low)/X(q) W(high)/X(q)  e(spline) 
   0      8    11.310   159.560    0.27E-03    0.30E-03    0.39E-07
   0      8    11.310   115.863    0.27E-03    0.30E-03    0.38E-07
   1      7    11.310    88.339    0.28E-03    0.28E-03    0.77E-07
   1      7    11.310    48.592    0.27E-03    0.27E-03    0.74E-07
 Optimization of the real space projectors (new method)

 maximal supplied QI-value         = 13.61
 optimisation between [QCUT,QGAM] = [ 11.43, 22.86] = [ 36.58,146.31] Ry 
 Optimized for a Real-space Cutoff    1.56 Angstroem

   l    n(q)    QCUT    max X(q) W(low)/X(q) W(high)/X(q)  e(spline) 
   2     10    11.429   130.855    0.22E-03    0.64E-03    0.11E-05
   2     10    11.429   114.007    0.22E-03    0.64E-03    0.11E-05
   0     11    11.429    84.709    0.39E-04    0.67E-04    0.23E-06
   0     11    11.429    49.163    0.35E-04    0.62E-04    0.21E-06
   1     10    11.429    15.765    0.84E-04    0.15E-03    0.24E-06
   1     10    11.429    10.638    0.58E-04    0.12E-03    0.19E-06

 ----------------------------------------------------------------------------- 
|                                                                             |
|  ADVICE TO THIS USER RUNNING 'VASP/VAMP'   (HEAR YOUR MASTER'S VOICE ...):  |
|                                                                             |
|      You enforced a specific xc-type in the INCAR file,                     |
|      a different type was found on the POTCAR file                          |
|          I HOPE YOU KNOW, WHAT YOU ARE  DOING                               |
|                                                                             |
 ----------------------------------------------------------------------------- 

  PAW_PBE C 08Apr2002                   :
 energy of atom  1       EATOM= -147.1560
 kinetic energy error for atom=    0.0076 (will be added to EATOM!!)
  PAW_PBE H 15Jun2001                   :
 energy of atom  2       EATOM=  -12.4884
 kinetic energy error for atom=    0.0020 (will be added to EATOM!!)
  PAW_PBE O 08Apr2002                   :
 energy of atom  3       EATOM= -432.3788
 kinetic energy error for atom=    0.0224 (will be added to EATOM!!)
  PAW_PBE Si 05Jan2001                  :
 energy of atom  4       EATOM= -103.0669
 kinetic energy error for atom=    0.0006 (will be added to EATOM!!)
  PAW_PBE W 08Apr2002                   :
 energy of atom  5       EATOM= -204.6103
 kinetic energy error for atom=    0.0017 (will be added to EATOM!!)


 POSCAR:  C  H  O Si  W                          
  positions in direct lattice
  velocities in cartesian coordinates
 exchange correlation table for  LEXCH =        9
   RHO(1)=    0.500       N(1)  =     2000
   RHO(2)=  100.500       N(2)  =     4000

 VTST: version 3.2, (02/03/18)

 CHAIN: initializing optimizer
 
 OPT: Using VASP QUASI-newton optimizer
 CHAIN: Read ICHAIN            0

 POSCAR:  C  H  O Si  W                          
  positions in direct lattice
  velocities in cartesian coordinates



--------------------------------------------------------------------------------------------------------


 ion  position               nearest neighbor table
   1  0.538  0.512  0.738-  48 1.09  47 1.10 271 1.90
   2  0.570  0.349  0.828-  49 1.12  50 1.12 204 1.22
   3  0.762  0.103  0.651- 125 0.97
   4  0.926  0.279  0.356-  73 0.98
   5  0.793  0.207  0.373- 108 0.97
   6  0.975  0.944  0.325- 117 0.97
   7  0.626  0.963  0.375- 119 0.98
   8  0.821  0.995  0.369- 137 0.97
   9  0.750  0.141  0.458- 175 0.98
  10  0.915  0.249  0.509- 180 0.97
  11  0.583  0.304  0.306- 185 0.97
  12  0.891  0.335  0.616-  91 0.98
  13  0.594  0.361  0.614- 136 0.97
  14  0.594  0.871  0.578- 178 0.99
  15  0.034  0.338  0.652- 184 0.97
  16  0.935  0.420  0.454- 173 0.98
  17  0.746  0.530  0.422-  87 1.00
  18  0.799  0.383  0.635- 165 0.97
  19  0.591  0.569  0.378-  99 0.99
  20  0.718  0.646  0.383- 122 0.99
  21  0.841  0.542  0.420- 128 0.98
  22  0.005  0.604  0.358- 133 0.97
  23  0.828  0.712  0.468- 174 0.99
  24  0.876  0.598  0.722-  53 0.97
  25  0.520  0.986  0.422- 135 0.99
  26  0.223  0.980  0.393- 176 1.00
  27  0.216  0.238  0.319- 191 0.99
  28  0.158  0.330  0.279- 182 0.97
  29  0.342  0.156  0.331- 183 0.98
  30  0.223  0.046  0.323- 190 0.97
  31  0.511  0.827  0.547- 193 0.97
  32  0.372  0.238  0.648-  78 0.97
  33  0.243  0.093  0.599- 129 0.98
  34  0.315  0.487  0.442-  52 0.99
  35  0.409  0.439  0.406- 141 0.98
  36  0.398  0.793  0.389- 179 0.97
  37  0.244  0.655  0.294- 187 0.97
  38  0.312  0.418  0.369- 188 0.98
  39  0.405  0.584  0.339- 189 0.97
  40  0.139  0.488  0.352- 181 0.98
  41  0.593  0.698  0.352-  82 0.97
  42  0.469  0.861  0.444- 192 0.99
  43  0.122  0.323  0.612- 101 0.97
  44  0.073  0.665  0.646- 132 0.97
  45  0.243  0.387  0.682- 177 0.97
  46  0.248  0.815  0.670- 186 0.97
  47  0.573  0.548  0.726-   1 1.10
  48  0.541  0.491  0.776-   1 1.09
  49  0.534  0.311  0.822-   2 1.12
  50  0.614  0.326  0.819-   2 1.12
  51  0.369  0.648  0.439- 225 1.66 260 1.68
  52  0.347  0.504  0.420-  34 0.99 260 1.67
  53  0.861  0.566  0.697-  24 0.97 231 1.64
  54  0.349  0.961  0.530- 236 1.68 269 1.70
  55  0.033  0.933  0.529- 251 1.63 262 1.66
  56  0.636  0.079  0.489- 229 1.60 218 1.65
  57  0.069  0.052  0.395- 217 1.64 209 1.65
  58  0.452  0.130  0.421- 234 1.65 215 1.65
  59  0.806  0.214  0.483- 233 1.67 230 1.69
  60  0.973  0.182  0.599- 211 1.63 241 1.65
  61  0.275  0.299  0.449- 257 1.65 267 1.66
  62  0.556  0.775  0.442- 238 1.51 265 1.66
  63  0.391  0.975  0.620- 255 1.65 269 1.66
  64  0.178  0.350  0.405- 257 1.66 232 1.67
  65  0.867  0.684  0.637- 235 1.64 231 1.65
  66  0.866  0.967  0.467- 227 1.60 242 1.65
  67  0.301  0.761  0.458- 225 1.65 239 1.67
  68  0.422  0.261  0.380- 234 1.67 254 1.67
  69  0.811  0.465  0.520- 261 1.63 208 1.64
  70  0.984  0.073  0.521- 251 1.68 211 1.69
  71  0.509  0.462  0.630- 270 1.67 271 1.96
  72  0.035  0.920  0.429- 262 1.64 209 1.65
  73  0.963  0.303  0.351-   4 0.98 210 1.65
  74  0.070  0.336  0.376- 210 1.64 232 1.65
  75  0.208  0.729  0.395- 239 1.66 249 1.67
  76  0.039  0.419  0.499- 264 1.64 237 1.65
  77  0.240  0.286  0.588- 245 1.63 222 1.63
  78  0.397  0.196  0.645-  32 0.97 216 1.64
  79  0.455  0.565  0.581- 270 1.68 247 1.68
  80  0.910  0.749  0.557- 235 1.64 214 1.65
  81  0.869  0.108  0.442- 242 1.64 230 1.65
  82  0.573  0.667  0.376-  41 0.97 238 1.68
  83  0.142  0.159  0.376- 263 1.65 217 1.65
  84  0.351  0.765  0.607- 207 1.62 248 1.64
  85  0.911  0.845  0.483- 227 1.62 214 1.66
  86  0.061  0.537  0.442- 264 1.66 206 1.67
  87  0.708  0.555  0.420-  17 1.00 220 1.67
  88  0.075  0.817  0.483- 262 1.50 244 1.65
  89  0.700  0.828  0.433- 219 1.53 252 1.65
  90  0.730  0.049  0.543- 218 1.64 253 1.64
  91  0.919  0.302  0.632-  12 0.98 241 1.63
  92  0.735  0.853  0.613- 226 1.66 223 1.68
  93  0.625  0.527  0.486- 228 1.58 220 1.68
  94  0.557  0.630  0.467- 238 1.52 228 1.63
  95  0.425  0.249  0.556- 216 1.68 259 1.68
  96  0.978  0.728  0.477- 244 1.65 214 1.65
  97  0.654  0.594  0.633- 266 1.64 212 1.67
  98  0.396  0.748  0.515- 225 1.65 207 1.65
  99  0.603  0.518  0.386-  19 0.99 220 1.65
 100  0.720  0.631  0.557- 250 1.63 266 1.64
 101  0.147  0.364  0.620-  43 0.97 222 1.64
 102  0.067  0.549  0.542- 264 1.63 268 1.64
 103  0.819  0.885  0.537- 227 1.65 226 1.67
 104  0.828  0.355  0.452- 233 1.65 208 1.65
 105  0.527  0.299  0.533- 259 1.62 240 1.63
 106  0.737  0.499  0.596- 266 1.65 261 1.66
 107  0.557  0.172  0.395- 246 1.59 215 1.64
 108  0.806  0.256  0.383-   5 0.97 233 1.67
 109  0.237  0.953  0.508- 236 1.58 221 1.67
 110  0.693  0.776  0.542- 250 1.63 223 1.64
 111  0.924  0.950  0.553- 251 1.65 227 1.65
 112  0.526  0.318  0.399- 246 1.45 254 1.66
 113  0.468  0.994  0.546- 255 1.69 256 1.70
 114  0.838  0.095  0.540- 230 1.66 253 1.66
 115  0.538  0.116  0.486- 229 1.61 215 1.67
 116  0.350  0.187  0.440- 267 1.63 234 1.65
 117  0.012  0.962  0.335-   6 0.97 209 1.65
 118  0.450  0.600  0.674- 247 1.66 271 1.95
 119  0.655  0.925  0.379-   7 0.98 219 1.66
 120  0.076  0.686  0.436- 206 1.65 244 1.66
 121  0.453  0.406  0.552- 270 1.68 259 1.70
 122  0.719  0.700  0.380-  20 0.99 252 1.65
 123  0.454  0.708  0.597- 207 1.63 247 1.63
 124  0.753  0.709  0.476- 250 1.63 252 1.69
 125  0.778  0.121  0.621-   3 0.97 253 1.64
 126  0.993  0.308  0.448- 237 1.66 210 1.68
 127  0.536  0.508  0.534- 270 1.64 228 1.65
 128  0.817  0.499  0.423-  21 0.98 208 1.69
 129  0.236  0.145  0.605-  33 0.98 245 1.62
 130  0.204  0.831  0.471- 221 1.50 239 1.63
 131  0.240  0.559  0.523- 224 1.65 213 1.66
 132  0.061  0.626  0.624-  44 0.97 268 1.63
 133  0.046  0.602  0.354-  22 0.97 206 1.65
 134  0.801  0.979  0.606- 226 1.66 253 1.68
 135  0.538  0.028  0.405-  25 0.99 215 1.66
 136  0.607  0.312  0.605-  13 0.97 240 1.64
 137  0.862  0.004  0.369-   8 0.97 242 1.66
 138  0.095  0.149  0.467- 243 1.62 217 1.65
 139  0.171  0.204  0.531- 243 1.61 245 1.63
 140  0.641  0.704  0.455- 238 1.65 252 1.66
 141  0.437  0.410  0.386-  35 0.98 254 1.66
 142  0.574  0.060  0.572- 256 1.62 229 1.65
 143  0.151  0.593  0.389- 249 1.68 206 1.68
 144  0.268  0.602  0.392- 260 1.65 249 1.67
 145  0.440  0.322  0.470- 259 1.65 254 1.69
 146  0.238  0.159  0.430- 263 1.65 267 1.67
 147  0.073  0.150  0.563- 243 1.64 211 1.64
 148  0.845  0.544  0.600- 231 1.66 261 1.66
 149  0.621  0.280  0.411- 258 1.65 246 1.66
 150  0.603  0.892  0.467- 265 1.29 219 1.67
 151  0.031  0.195  0.389- 210 1.66 217 1.66
 152  0.608  0.196  0.547- 229 1.62 240 1.63
 153  0.133  0.938  0.479- 262 1.65 221 1.66
 154  0.080  0.280  0.512- 237 1.64 243 1.65
 155  0.372  0.107  0.569- 269 1.64 216 1.69
 156  0.067  0.697  0.536- 244 1.63 268 1.63
 157  0.666  0.415  0.430- 220 1.65 258 1.65
 158  0.799  0.730  0.564- 250 1.61 235 1.63
 159  0.704  0.957  0.470- 218 1.65 219 1.66
 160  0.599  0.636  0.553- 228 1.63 212 1.63
 161  0.723  0.294  0.452- 233 1.63 258 1.64
 162  0.978  0.314  0.547- 237 1.64 241 1.67
 163  0.159  0.630  0.571- 224 1.63 268 1.65
 164  0.633  0.327  0.508- 240 1.62 258 1.65
 165  0.820  0.396  0.606-  18 0.97 261 1.65
 166  0.959  0.027  0.417- 242 1.64 209 1.65
 167  0.282  0.195  0.519- 267 1.63 245 1.65
 168  0.249  0.443  0.461- 213 1.66 257 1.71
 169  0.274  0.851  0.569- 236 1.64 248 1.65
 170  0.204  0.686  0.487- 224 1.63 239 1.66
 171  0.147  0.476  0.493- 213 1.63 264 1.65
 172  0.224  0.423  0.557- 213 1.61 222 1.63
 173  0.911  0.453  0.474-  16 0.98 208 1.65
 174  0.870  0.705  0.464-  23 0.99 214 1.65
 175  0.738  0.093  0.445-   9 0.98 218 1.66
 176  0.222  0.930  0.408-  26 1.00 221 1.64
 177  0.253  0.402  0.649-  45 0.97 222 1.64
 178  0.631  0.883  0.593-  14 0.99 223 1.62
 179  0.410  0.789  0.423-  36 0.97 225 1.68
 180  0.918  0.196  0.508-  10 0.97 230 1.65
 181  0.133  0.444  0.332-  40 0.98 232 1.65
 182  0.155  0.304  0.311-  28 0.97 232 1.69
 183  0.373  0.131  0.348-  29 0.98 234 1.66
 184  0.035  0.292  0.633-  15 0.97 241 1.66
 185  0.573  0.257  0.320-  11 0.97 246 1.66
 186  0.246  0.771  0.650-  46 0.97 248 1.64
 187  0.207  0.648  0.310-  37 0.97 249 1.65
 188  0.275  0.392  0.367-  38 0.98 257 1.66
 189  0.365  0.598  0.342-  39 0.97 260 1.67
 190  0.226  0.056  0.358-  30 0.97 263 1.69
 191  0.241  0.196  0.329-  27 0.99 263 1.66
 192  0.501  0.892  0.455-  42 0.99 265 1.60
 193  0.550  0.828  0.534-  31 0.97 265 1.67
 194  0.545  0.646  0.634- 212 1.65 247 1.67
 195  0.478  0.125  0.597- 256 1.65 216 1.65
 196  0.263  0.695  0.568- 248 1.65 224 1.65
 197  0.442  0.850  0.581- 255 1.65 207 1.68
 198  0.766  0.617  0.649- 266 1.64 231 1.66
 199  0.845  0.832  0.623- 235 1.66 226 1.68
 200  0.640  0.740  0.621- 212 1.67 223 1.71
 201  0.008  0.033  0.603- 251 1.69 211 1.69
 202  0.284  0.004  0.593- 269 1.70 236 1.70
 203  0.503  0.974  0.629- 255 1.69 256 1.70
 204  0.564  0.411  0.843-   2 1.22
 205  0.428  0.448  0.723- 271 1.72
 206  0.083  0.606  0.406- 133 1.65 120 1.65  86 1.67 143 1.68 264 3.13
 207  0.409  0.768  0.574-  84 1.62 123 1.63  98 1.65 197 1.68 248 3.04
 208  0.842  0.441  0.468-  69 1.64 104 1.65 173 1.65 128 1.69
 209  0.017  0.990  0.394-  57 1.65 166 1.65  72 1.65 117 1.65 262 3.11 217 3.13
 210  0.015  0.284  0.391-  74 1.64  73 1.65 151 1.66 126 1.68 237 3.11 217 3.11
 211  0.009  0.115  0.573-  60 1.63 147 1.64  70 1.69 201 1.69 251 2.39 243 3.05 241 3.07
 212  0.610  0.658  0.611- 160 1.63 194 1.65  97 1.67 200 1.67 266 2.87 228 3.14
 213  0.214  0.476  0.510- 172 1.61 171 1.63 168 1.66 131 1.66 224 3.11 257 3.14
 214  0.915  0.756  0.496-  96 1.65 174 1.65  80 1.65  85 1.66 227 2.99 235 3.03
 215  0.521  0.110  0.426- 107 1.64  58 1.65 135 1.66 115 1.67 246 3.08 229 3.12
 216  0.418  0.171  0.590-  78 1.64 195 1.65  95 1.68 155 1.69 269 3.13 256 3.13
 217  0.083  0.139  0.407-  57 1.64 138 1.65  83 1.65 151 1.66 210 3.11 209 3.13 263 3.14
 218  0.702  0.045  0.487-  90 1.64 159 1.65  56 1.65 175 1.66 229 3.09 219 3.10 253 3.15
 219  0.665  0.898  0.437-  89 1.53 159 1.66 119 1.66 150 1.67 265 2.83 252 3.06 218 3.10
 220  0.650  0.504  0.430-  99 1.65 157 1.65  87 1.67  93 1.68 228 3.08
 221  0.198  0.912  0.464- 130 1.50 176 1.64 153 1.66 109 1.67 239 3.01 236 3.07 262 3.07
 222  0.215  0.367  0.604-  77 1.63 172 1.63 101 1.64 177 1.64
 223  0.674  0.814  0.595- 178 1.62 110 1.64  92 1.68 200 1.71 250 2.90
 224  0.217  0.642  0.539- 170 1.63 163 1.63 196 1.65 131 1.65 239 3.09 213 3.11 268 3.12
 225  0.369  0.735  0.459-  98 1.65  67 1.65  51 1.66 179 1.68
 226  0.797  0.888  0.596- 134 1.66  92 1.66 103 1.67 199 1.68 235 2.86 227 2.99 253 3.15
 227  0.880  0.912  0.512-  66 1.60  85 1.62 103 1.65 111 1.65 214 2.99 226 2.99 251 3.05 242 3.13

 228  0.577  0.575  0.512-  93 1.58 160 1.63  94 1.63 127 1.65 238 3.00 220 3.08 212 3.14
 229  0.590  0.116  0.525-  56 1.60 115 1.61 152 1.62 142 1.65 256 2.85 218 3.09 240 3.12 215 3.12

 230  0.858  0.152  0.495- 180 1.65  81 1.65 114 1.66  59 1.69 242 3.07 233 3.15
 231  0.836  0.604  0.646-  53 1.64  65 1.65 148 1.66 198 1.66 266 2.93 235 3.01 261 3.01
 232  0.134  0.360  0.357- 181 1.65  74 1.65  64 1.67 182 1.69 257 3.11
 233  0.791  0.280  0.442- 161 1.63 104 1.65 108 1.67  59 1.67 230 3.15
 234  0.399  0.177  0.396-  58 1.65 116 1.65 183 1.66  68 1.67 254 3.07
 235  0.856  0.750  0.597- 158 1.63  80 1.64  65 1.64 199 1.66 226 2.86 231 3.01 214 3.03
 236  0.283  0.936  0.550- 109 1.58 169 1.64  54 1.68 202 1.70 269 2.38 221 3.07
 237  0.023  0.330  0.502- 154 1.64 162 1.64  76 1.65 126 1.66 241 3.11 210 3.11 243 3.13
 238  0.575  0.695  0.436-  62 1.51  94 1.52 140 1.65  82 1.68 228 3.00 265 3.06 252 3.10
 239  0.230  0.753  0.452- 130 1.63 170 1.66  75 1.66  67 1.67 249 2.97 221 3.01 224 3.09
 240  0.594  0.284  0.548- 164 1.62 105 1.63 152 1.63 136 1.64 229 3.12 258 3.15
 241  0.975  0.272  0.603-  91 1.63  60 1.65 184 1.66 162 1.67 211 3.07 237 3.11
 242  0.889  0.025  0.424-  81 1.64 166 1.64  66 1.65 137 1.66 230 3.07 227 3.13
 243  0.105  0.195  0.518- 139 1.61 138 1.62 147 1.64 154 1.65 211 3.05 237 3.13
 244  0.048  0.733  0.483- 156 1.63  96 1.65  88 1.65 120 1.66 262 3.05 268 3.15
 245  0.232  0.206  0.561- 129 1.62  77 1.63 139 1.63 167 1.65 267 3.03
 246  0.561  0.258  0.381- 112 1.45 107 1.59 149 1.66 185 1.66 254 2.87 215 3.08
 247  0.476  0.631  0.620- 123 1.63 118 1.66 194 1.67  79 1.68 270 2.99 271 3.03
 248  0.282  0.771  0.598- 186 1.64  84 1.64 196 1.65 169 1.65 207 3.04
 249  0.209  0.643  0.372- 187 1.65 144 1.67  75 1.67 143 1.68 239 2.97
 250  0.740  0.711  0.536- 158 1.61 100 1.63 124 1.63 110 1.63 223 2.90 252 2.91 266 3.07
 251  0.987  0.991  0.550-  55 1.63 111 1.65  70 1.68 201 1.69 211 2.39 227 3.05
 252  0.703  0.737  0.434-  89 1.65 122 1.65 140 1.66 124 1.69 250 2.91 219 3.06 238 3.10
 253  0.788  0.059  0.577-  90 1.64 125 1.64 114 1.66 134 1.68 226 3.15 218 3.15
 254  0.456  0.328  0.409- 141 1.66 112 1.66  68 1.67 145 1.69 246 2.87 234 3.07
 255  0.449  0.939  0.594-  63 1.65 197 1.65 113 1.69 203 1.69 256 2.36 269 2.74
 256  0.508  0.043  0.586- 142 1.62 195 1.65 113 1.70 203 1.70 255 2.36 229 2.85 216 3.13
 257  0.244  0.370  0.421-  61 1.65  64 1.66 188 1.66 168 1.71 232 3.11 213 3.14
 258  0.659  0.330  0.450- 161 1.64 149 1.65 157 1.65 164 1.65 240 3.15
 259  0.460  0.319  0.529- 105 1.62 145 1.65  95 1.68 121 1.70
 260  0.337  0.590  0.399- 144 1.65 189 1.67  52 1.67  51 1.68
 261  0.803  0.476  0.580-  69 1.63 165 1.65 148 1.66 106 1.66 266 2.90 231 3.01
 262  0.069  0.899  0.481-  88 1.50  72 1.64 153 1.65  55 1.66 244 3.05 221 3.07 209 3.11
 263  0.212  0.144  0.374-  83 1.65 146 1.65 191 1.66 190 1.69 267 3.12 217 3.14
 264  0.078  0.494  0.495- 102 1.63  76 1.64 171 1.65  86 1.66 268 3.10 206 3.13
 265  0.558  0.852  0.475- 150 1.29 192 1.60  62 1.66 193 1.67 219 2.83 238 3.06
 266  0.718  0.584  0.610- 100 1.64  97 1.64 198 1.64 106 1.65 212 2.87 261 2.90 231 2.93 250 3.07

 267  0.287  0.210  0.459- 167 1.63 116 1.63  61 1.66 146 1.67 245 3.03 263 3.12
 268  0.088  0.626  0.568- 156 1.63 132 1.63 102 1.64 163 1.65 264 3.10 224 3.12 244 3.15
 269  0.353  0.022  0.578- 155 1.64  63 1.66  54 1.70 202 1.70 236 2.38 255 2.74 216 3.13
 270  0.486  0.482  0.573- 127 1.64  71 1.67 121 1.68  79 1.68 247 2.99 271 3.23
 271  0.477  0.502  0.692- 205 1.72   1 1.90 118 1.95  71 1.96 247 3.03 270 3.23

  LATTYP: Found a simple orthorhombic cell.
 ALAT       =    18.1212369514
 B/A-ratio  =     1.2919258579
 C/A-ratio  =     1.4835282260
  
  Lattice vectors:
  
 A1 = (   0.0000000000, -18.1212369514,   0.0000000000)
 A2 = ( -23.4112945954,   0.0000000000,   0.0000000000)
 A3 = (   0.0000000000,   0.0000000000, -26.8833665073)


Analysis of symmetry for initial positions (statically):
=====================================================================
 Subroutine PRICEL returns:
 Original cell was already a primitive cell.
 

 Routine SETGRP: Setting up the symmetry group for a 
 simple orthorhombic supercell.


 Subroutine GETGRP returns: Found  1 space group operations
 (whereof  1 operations were pure point group operations)
 out of a pool of  8 trial point group operations.


The static configuration has the point symmetry C_1 .


Analysis of symmetry for dynamics (positions and initial velocities):
=====================================================================
 Subroutine PRICEL returns:
 Original cell was already a primitive cell.
 

 Routine SETGRP: Setting up the symmetry group for a 
 simple orthorhombic supercell.


 Subroutine GETGRP returns: Found  1 space group operations
 (whereof  1 operations were pure point group operations)
 out of a pool of  8 trial point group operations.


The dynamic configuration has the point symmetry C_1 .


Analysis of constrained symmetry for selective dynamics:
=====================================================================
 Subroutine PRICEL returns:
 Original cell was already a primitive cell.
 

 Routine SETGRP: Setting up the symmetry group for a 
 simple orthorhombic supercell.


 Subroutine GETGRP returns: Found  1 space group operations
 (whereof  1 operations were pure point group operations)
 out of a pool of  8 trial point group operations.


The constrained configuration has the point symmetry C_1 .


 Subroutine INISYM returns: Found  1 space group operations
 (whereof  1 operations are pure point group operations),
 and found     1 'primitive' translations



 KPOINTS: KPOINTS created by Atomic Simulation Env

Automatic generation of k-mesh.
Space group operators:
 irot       det(A)        alpha          n_x          n_y          n_z        tau_x        tau_y        tau_z
    1     1.000000     0.000000     1.000000     0.000000     0.000000     0.000000     0.000000     0.000000
 
 Subroutine IBZKPT returns following result:
 ===========================================
 
 Found      5 irreducible k-points:
 
 Following reciprocal coordinates:
            Coordinates               Weight
  0.000000  0.000000  0.000000      1.000000
  0.333333  0.000000  0.000000      2.000000
  0.000000  0.333333  0.000000      2.000000
  0.333333  0.333333  0.000000      2.000000
 -0.333333  0.333333  0.000000      2.000000
 
 Following cartesian coordinates:
            Coordinates               Weight
  0.000000  0.000000  0.000000      1.000000
  0.014238  0.000000  0.000000      2.000000
  0.000000  0.018395  0.000000      2.000000
  0.014238  0.018395  0.000000      2.000000
 -0.014238  0.018395  0.000000      2.000000
 


--------------------------------------------------------------------------------------------------------




 Dimension of arrays:
   k-points           NKPTS =      5   k-points in BZ     NKDIM =      5   number of bands    NBANDS=    768
   number of dos      NEDOS =    301   number of ions     NIONS =    271
   non local maximal  LDIM  =      6   non local SUM 2l+1 LMDIM =     18
   total plane-waves  NPLWV = ******
   max r-space proj   IRMAX =   2748   max aug-charges    IRDMAX=   9808
   dimension x,y,z NGX =   128 NGY =  100 NGZ =  150
   dimension x,y,z NGXF=   256 NGYF=  200 NGZF=  300
   support grid    NGXF=   256 NGYF=  200 NGZF=  300
   ions per type =               2  48 155  65   1
   NGX,Y,Z   is equivalent  to a cutoff of   9.09,  9.17,  9.28 a.u.
   NGXF,Y,Z  is equivalent  to a cutoff of  18.18, 18.35, 18.55 a.u.

 SYSTEM =  unknown system                          
 POSCAR =   C  H  O Si  W                          

 Startparameter for this run:
   NWRITE =      2    write-flag & timer
   PREC   = normal    normal or accurate (medium, high low for compatibility)
   ISTART =      0    job   : 0-new  1-cont  2-samecut
   ICHARG =      2    charge: 1-file 2-atom 10-const
   ISPIN  =      1    spin polarized calculation?
   LNONCOLLINEAR =      F non collinear calculations
   LSORBIT =      F    spin-orbit coupling
   INIWAV =      1    electr: 0-lowe 1-rand  2-diag
   LASPH  =      T    aspherical Exc in radial PAW
   METAGGA=      F    non-selfconsistent MetaGGA calc.

 Electronic Relaxation 1
   ENCUT  =  500.0 eV  36.75 Ry    6.06 a.u.  42.68 33.04 49.01*2*pi/ulx,y,z
   ENINI  =  500.0     initial cutoff
   ENAUG  =  644.9 eV  augmentation charge cutoff
   NELM   =     60;   NELMIN=  2; NELMDL=  0     # of ELM steps 
   EDIFF  = 0.1E-03   stopping-criterion for ELM
   LREAL  =      T    real-space projection
   NLSPLINE    = F    spline interpolate recip. space projectors
   LCOMPAT=      F    compatible to vasp.4.4
   GGA_COMPAT  = T    GGA compatible to vasp.4.4-vasp.4.6
   LMAXPAW     = -100 max onsite density
   LMAXMIX     =    2 max onsite mixed and CHGCAR
   VOSKOWN=      0    Vosko Wilk Nusair interpolation
   ROPT   =   -0.00050  -0.00050  -0.00050  -0.00050
   ROPT   =   -0.00050
 Ionic relaxation
   EDIFFG = -.5E-01   stopping-criterion for IOM
   NSW    =    150    number of steps for IOM
   NBLOCK =      1;   KBLOCK =    150    inner block; outer block 
   IBRION =      1    ionic relax: 0-MD 1-quasi-New 2-CG
   NFREE  =      0    steps in history (QN), initial steepest desc. (CG)
   ISIF   =      0    stress and relaxation
   IWAVPR =     11    prediction:  0-non 1-charg 2-wave 3-comb
   ISYM   =      2    0-nonsym 1-usesym 2-fastsym
   LCORR  =      T    Harris-Foulkes like correction to forces

   POTIM  = 0.5000    time-step for ionic-motion
   TEIN   =    0.0    initial temperature
   TEBEG  =    0.0;   TEEND  =   0.0 temperature during run
   SMASS  =  -3.00    Nose mass-parameter (am)
   estimated Nose-frequenzy (Omega)   =  0.10E-29 period in steps =****** mass=  -0.125E-25a.u.
   SCALEE = 1.0000    scale energy and forces
   NPACO  =    256;   APACO  = 16.0  distance and # of slots for P.C.
   PSTRESS=    0.0 pullay stress

  Mass of Ions in am
   POMASS =  12.01  1.00 16.00 28.09183.85
  Ionic Valenz
   ZVAL   =   4.00  1.00  6.00  4.00  6.00
  Atomic Wigner-Seitz radii
   RWIGS  =  -1.00 -1.00 -1.00 -1.00 -1.00
  virtual crystal weights 
   VCA    =   1.00  1.00  1.00  1.00  1.00
   NELECT =    1252.0000    total number of electrons
   NUPDOWN=      -1.0000    fix difference up-down

 DOS related values:
   EMIN   =  10.00;   EMAX   =-10.00  energy-range for DOS
   EFERMI =   0.00
   ISMEAR =     0;   SIGMA  =   0.20  broadening in eV -4-tet -1-fermi 0-gaus

 Electronic relaxation 2 (details)
   IALGO  =     68    algorithm
   LDIAG  =      T    sub-space diagonalisation (order eigenvalues)
   LSUBROT=      F    optimize rotation matrix (better conditioning)
   TURBO    =      0    0=normal 1=particle mesh
   IRESTART =      0    0=no restart 2=restart with 2 vectors
   NREBOOT  =      0    no. of reboots
   NMIN     =      0    reboot dimension
   EREF     =   0.00    reference energy to select bands
   IMIX   =      4    mixing-type and parameters
     AMIX     =   0.40;   BMIX     =  1.00
     AMIX_MAG =   1.60;   BMIX_MAG =  1.00
     AMIN     =   0.10
     WC   =   100.;   INIMIX=   1;  MIXPRE=   1;  MAXMIX= -45

 Intra band minimization:
   WEIMIN = 0.0010     energy-eigenvalue tresh-hold
   EBREAK =  0.33E-07  absolut break condition
   DEPER  =   0.30     relativ break condition  

   TIME   =   0.40     timestep for ELM

  volume/ion in A,a.u.               =      42.09       284.00
  Fermi-wavevector in a.u.,A,eV,Ry     =   0.783870  1.481299  8.360126  0.614452
  Thomas-Fermi vector in A             =   1.887886

 Write flags
   LWAVE        =      F    write WAVECAR
   LDOWNSAMPLE  =      F    k-point downsampling of WAVECAR
   LCHARG       =      F    write CHGCAR
   LVTOT        =      F    write LOCPOT, total local potential
   LVHAR        =      F    write LOCPOT, Hartree potential only
   LELF         =      F    write electronic localiz. function (ELF)
   LORBIT       =      0    0 simple, 1 ext, 2 COOP (PROOUT), +10 PAW based schemes


 Dipole corrections
   LMONO  =      F    monopole corrections only (constant potential shift)
   LDIPOL =      T    correct potential (dipole corrections)
   IDIPOL =      3    1-x, 2-y, 3-z, 4-all directions 
   EPSILON=  1.0000000 bulk dielectric constant

 Exchange correlation treatment:
   GGA     =    RP    GGA type
   LEXCH   =     9    internal setting for exchange type
   VOSKOWN=      0    Vosko Wilk Nusair interpolation
   LHFCALC =     F    Hartree Fock is set to
   LHFONE  =     F    Hartree Fock one center treatment
   AEXX    =    0.0000 exact exchange contribution

 Linear response parameters
   LEPSILON=     F    determine dielectric tensor
   LRPA    =     F    only Hartree local field effects (RPA)
   LNABLA  =     F    use nabla operator in PAW spheres
   LVEL    =     F    velocity operator in full k-point grid
   LINTERFAST=   F  fast interpolation
   KINTER  =     0    interpolate to denser k-point grid
   CSHIFT  =0.1000    complex shift for real part using Kramers Kronig
   OMEGAMAX=  -1.0    maximum frequency
   DEG_THRESHOLD= 0.2000000E-02 threshold for treating states as degnerate
   RTIME   =   -0.100 relaxation time in fs
  (WPLASMAI=    0.000 imaginary part of plasma frequency in eV, 0.658/RTIME)
   DFIELD  = 0.0000000 0.0000000 0.0000000 field for delta impulse in time

 Orbital magnetization related:
   ORBITALMAG=     F  switch on orbital magnetization
   LCHIMAG   =     F  perturbation theory with respect to B field
   DQ        =  0.001000  dq finite difference perturbation B field
   LLRAUG    =     F  two centre corrections for induced B field



--------------------------------------------------------------------------------------------------------


 quasi-Newton-method for relaxation of ions
   using selective dynamics as specified on POSCAR
 charge density and potential will be updated during run
 non-spin polarized calculation
 RMM-DIIS sequential band-by-band and
  variant of blocked Davidson during initial phase
 perform sub-space diagonalisation
    before iterative eigenvector-optimisation
 modified Broyden-mixing scheme, WC =      100.0
 initial mixing is a Kerker type mixing with AMIX =  0.4000 and BMIX =      1.0000
 Hartree-type preconditioning will be used
 using additional bands          142
 real space projection scheme for non local part
 use partial core corrections
 calculate Harris-corrections to forces   (improved forces if not selfconsistent)
 use gradient corrections 
 use of overlap-Matrix (Vanderbilt PP)
 Gauss-broadening in eV      SIGMA  =   0.20


--------------------------------------------------------------------------------------------------------


  energy-cutoff  :      500.00
  volume of cell :    11405.04
      direct lattice vectors                 reciprocal lattice vectors
    23.411294595  0.000000000  0.000000000     0.042714426  0.000000000  0.000000000
     0.000000000 18.121236951  0.000000000     0.000000000  0.055183871  0.000000000
     0.000000000  0.000000000 26.883366507     0.000000000  0.000000000  0.037197722

  length of vectors
    23.411294595 18.121236951 26.883366507     0.042714426  0.055183871  0.037197722



 k-points in units of 2pi/SCALE and weight: KPOINTS created by Atomic Simulation Env
   0.00000000  0.00000000  0.00000000       0.111
   0.01423814  0.00000000  0.00000000       0.222
   0.00000000  0.01839462  0.00000000       0.222
   0.01423814  0.01839462  0.00000000       0.222
  -0.01423814  0.01839462  0.00000000       0.222

 k-points in reciprocal lattice and weights: KPOINTS created by Atomic Simulation Env
   0.00000000  0.00000000  0.00000000       0.111
   0.33333333  0.00000000  0.00000000       0.222
   0.00000000  0.33333333  0.00000000       0.222
   0.33333333  0.33333333  0.00000000       0.222
  -0.33333333  0.33333333  0.00000000       0.222

 position of ions in fractional coordinates (direct lattice) 
   0.53760816  0.51221440  0.73799605
   0.57039666  0.34881522  0.82776212
   0.76154740  0.10288695  0.65140349
   0.92642768  0.27866896  0.35633493
   0.79333970  0.20727890  0.37345652
   0.97453911  0.94360860  0.32530279
   0.62573266  0.96347285  0.37523120
   0.82053840  0.99500666  0.36899263
   0.74999307  0.14117876  0.45803819
   0.91544851  0.24946009  0.50919305
   0.58349286  0.30426355  0.30592717
   0.89147019  0.33480977  0.61580799
   0.59358297  0.36127353  0.61428061
   0.59352998  0.87086478  0.57797027
   0.03376560  0.33771991  0.65220889
   0.93527051  0.41951423  0.45410146
   0.74613838  0.53031199  0.42248819
   0.79883999  0.38277966  0.63535285
   0.59110202  0.56868283  0.37803474
   0.71843379  0.64593279  0.38346059
   0.84115291  0.54242660  0.41959617
   0.00476455  0.60379815  0.35777830
   0.82835870  0.71235667  0.46794226
   0.87612042  0.59834441  0.72191633
   0.51999031  0.98556476  0.42170307
   0.22309457  0.98015484  0.39320502
   0.21637369  0.23785146  0.31923033
   0.15750105  0.32980623  0.27898292
   0.34154688  0.15558571  0.33077276
   0.22271586  0.04575893  0.32273843
   0.51111007  0.82698080  0.54684377
   0.37189038  0.23829820  0.64794213
   0.24313713  0.09307520  0.59859144
   0.31538097  0.48713646  0.44243467
   0.40895618  0.43873486  0.40569060
   0.39849950  0.79311361  0.38878680
   0.24420236  0.65543008  0.29432688
   0.31174138  0.41847571  0.36925764
   0.40547429  0.58427965  0.33881989
   0.13935762  0.48797365  0.35192946
   0.59326935  0.69798713  0.35239799
   0.46900683  0.86142747  0.44382838
   0.12217487  0.32319990  0.61231890
   0.07291452  0.66490972  0.64584365
   0.24346938  0.38715588  0.68222586
   0.24781831  0.81503245  0.66982021
   0.57288023  0.54825425  0.72586118
   0.54055699  0.49056702  0.77584664
   0.53359493  0.31059996  0.82152100
   0.61369032  0.32633465  0.81873299
   0.36894173  0.64835510  0.43900002
   0.34681565  0.50403387  0.42038813
   0.86071621  0.56575160  0.69670385
   0.34871123  0.96077822  0.53031736
   0.03345805  0.93256531  0.52852558
   0.63635548  0.07886855  0.48937667
   0.06864615  0.05226542  0.39511073
   0.45189954  0.12956232  0.42059728
   0.80588415  0.21365018  0.48316661
   0.97311038  0.18155567  0.59878109
   0.27476529  0.29917287  0.44851223
   0.55635417  0.77509129  0.44175101
   0.39104403  0.97515380  0.61958474
   0.17751724  0.34996845  0.40527312
   0.86653672  0.68401541  0.63735251
   0.86569601  0.96717693  0.46703846
   0.30104714  0.76093683  0.45792526
   0.42161095  0.26125222  0.37959630
   0.81121362  0.46523742  0.52017468
   0.98355274  0.07277407  0.52124216
   0.50880579  0.46233720  0.63017963
   0.03453641  0.91994776  0.42940526
   0.96303654  0.30319531  0.35125762
   0.06962669  0.33610577  0.37637178
   0.20829566  0.72864429  0.39536010
   0.03890126  0.41910192  0.49910875
   0.23978265  0.28590865  0.58777803
   0.39746113  0.19637505  0.64539669
   0.45490672  0.56490121  0.58053085
   0.90976710  0.74908790  0.55747824
   0.86912727  0.10804334  0.44227833
   0.57257679  0.66733185  0.37613173
   0.14242656  0.15912550  0.37597224
   0.35148914  0.76511203  0.60679126
   0.91099605  0.84504757  0.48317962
   0.06133801  0.53687171  0.44225348
   0.70833903  0.55516655  0.41995768
   0.07548726  0.81680680  0.48299416
   0.70046477  0.82755572  0.43263529
   0.73017516  0.04900445  0.54299437
   0.91894313  0.30219475  0.63196343
   0.73505056  0.85310284  0.61295262
   0.62512195  0.52739400  0.48637871
   0.55657330  0.62970304  0.46724942
   0.42511708  0.24897816  0.55598126
   0.97829009  0.72824363  0.47679564
   0.65413818  0.59408340  0.63336855
   0.39640197  0.74808788  0.51498956
   0.60269007  0.51766545  0.38567099
   0.71995194  0.63075491  0.55705233
   0.14724075  0.36427389  0.62036171
   0.06671301  0.54858939  0.54200325
   0.81890239  0.88467154  0.53665421
   0.82821553  0.35538514  0.45190334
   0.52734956  0.29871965  0.53261892
   0.73689577  0.49890560  0.59558496
   0.55743394  0.17243111  0.39490854
   0.80596408  0.25641257  0.38329286
   0.23744622  0.95325075  0.50791956
   0.69282145  0.77589386  0.54169482
   0.92387839  0.94977673  0.55295157
   0.52573722  0.31778112  0.39855594
   0.46753899  0.99376218  0.54626837
   0.83767933  0.09483018  0.53978656
   0.53790325  0.11641749  0.48623709
   0.35019344  0.18660873  0.43963639
   0.01176032  0.96241390  0.33524376
   0.45048472  0.60027209  0.67386532
   0.65496522  0.92539750  0.37922825
   0.07629334  0.68602626  0.43588102
   0.45312111  0.40590707  0.55243774
   0.71921944  0.70042085  0.37958300
   0.45371061  0.70847792  0.59728345
   0.75255106  0.70932458  0.47629548
   0.77849733  0.12090072  0.62083499
   0.99327462  0.30801347  0.44840298
   0.53581331  0.50833414  0.53371336
   0.81677759  0.49906173  0.42344221
   0.23575751  0.14522049  0.60535325
   0.20353331  0.83070132  0.47053363
   0.24001257  0.55888187  0.52292264
   0.06129022  0.62553087  0.62367582
   0.04607407  0.60234669  0.35417863
   0.80078891  0.97870347  0.60584315
   0.53799091  0.02769749  0.40450275
   0.60664124  0.31229357  0.60508886
   0.86154611  0.00408085  0.36920633
   0.09491131  0.14902284  0.46708233
   0.17140044  0.20409715  0.53091935
   0.64098865  0.70443872  0.45481558
   0.43678778  0.40976848  0.38641325
   0.57390607  0.06000571  0.57169379
   0.15143775  0.59340802  0.38895836
   0.26773979  0.60233753  0.39230630
   0.44025846  0.32219818  0.47032443
   0.23800967  0.15851113  0.42990119
   0.07276190  0.15029705  0.56258449
   0.84500187  0.54397537  0.59989033
   0.62117943  0.27993988  0.41090545
   0.60266699  0.89152667  0.46722346
   0.03138539  0.19528983  0.38899188
   0.60778149  0.19580565  0.54707554
   0.13279973  0.93835464  0.47948708
   0.08026094  0.28041060  0.51157022
   0.37197865  0.10709984  0.56852296
   0.06679860  0.69692231  0.53563780
   0.66648838  0.41538488  0.43001156
   0.79937915  0.72962878  0.56413665
   0.70383856  0.95720843  0.47018456
   0.59853621  0.63560208  0.55296353
   0.72284030  0.29368465  0.45166811
   0.97756600  0.31417163  0.54722706
   0.15862984  0.63034225  0.57075105
   0.63333384  0.32678308  0.50780070
   0.81978314  0.39610765  0.60552560
   0.95857820  0.02724304  0.41695300
   0.28200296  0.19503978  0.51863361
   0.24925755  0.44303289  0.46105570
   0.27409985  0.85057512  0.56876858
   0.20366815  0.68557317  0.48688872
   0.14712345  0.47606988  0.49254493
   0.22447276  0.42257514  0.55662398
   0.91141698  0.45274460  0.47371881
   0.86978818  0.70456011  0.46415352
   0.73812021  0.09283462  0.44522965
   0.22218344  0.92978119  0.40794682
   0.25305472  0.40236912  0.64870509
   0.63053089  0.88324502  0.59343330
   0.41022327  0.78906239  0.42343739
   0.91777135  0.19603829  0.50824515
   0.13254706  0.44353611  0.33227266
   0.15514768  0.30352326  0.31056042
   0.37300515  0.13090704  0.34795342
   0.03458602  0.29195927  0.63344307
   0.57268926  0.25686819  0.32009968
   0.24609596  0.77071545  0.64965291
   0.20737430  0.64840505  0.31036906
   0.27537441  0.39219130  0.36737583
   0.36535081  0.59758663  0.34222079
   0.22638085  0.05618082  0.35811888
   0.24120334  0.19607823  0.32934297
   0.50127293  0.89230162  0.45484168
   0.55004017  0.82796995  0.53438094
   0.54499811  0.64557326  0.63442067
   0.47805609  0.12455005  0.59668269
   0.26309339  0.69502915  0.56813414
   0.44151989  0.85043081  0.58064850
   0.76555881  0.61680800  0.64946259
   0.84484122  0.83166614  0.62298551
   0.64009168  0.73966665  0.62141699
   0.00815241  0.03345568  0.60298731
   0.28386154  0.00350438  0.59332789
   0.50253555  0.97396029  0.62865285
   0.56380757  0.41147282  0.84336009
   0.42808319  0.44786527  0.72318134
   0.08322528  0.60642030  0.40641308
   0.40939980  0.76817864  0.57381015
   0.84176382  0.44145312  0.46783897
   0.01708949  0.99048204  0.39361135
   0.01470021  0.28419027  0.39108141
   0.00923698  0.11506812  0.57251362
   0.60962859  0.65777806  0.61107172
   0.21397791  0.47601891  0.50970168
   0.91506213  0.75556094  0.49625454
   0.52057854  0.11045563  0.42598659
   0.41805137  0.17144079  0.58959132
   0.08345253  0.13917208  0.40698087
   0.70189793  0.04484625  0.48732303
   0.66505935  0.89803746  0.43747644
   0.65009874  0.50402706  0.43015089
   0.19846065  0.91248223  0.46399069
   0.21463532  0.36663641  0.60353584
   0.67368077  0.81355908  0.59477586
   0.21695797  0.64192940  0.53858430
   0.36878912  0.73512773  0.45920930
   0.79749445  0.88848323  0.59568422
   0.87981712  0.91228184  0.51199107
   0.57703070  0.57526052  0.51231088
   0.58989626  0.11571544  0.52516488
   0.85812234  0.15211323  0.49517595
   0.83550111  0.60353663  0.64594539
   0.13373852  0.36031890  0.35687228
   0.79065529  0.27993925  0.44187265
   0.39917610  0.17749484  0.39600320
   0.85602594  0.75001469  0.59656655
   0.28324880  0.93565236  0.54954033
   0.02307473  0.33044751  0.50224551
   0.57455938  0.69549008  0.43556436
   0.23024095  0.75260050  0.45196954
   0.59374875  0.28415837  0.54822834
   0.97520227  0.27233620  0.60262846
   0.88890636  0.02540900  0.42420019
   0.10466561  0.19549150  0.51774693
   0.04814566  0.73303709  0.48263019
   0.23190519  0.20582093  0.56100759
   0.56140781  0.25778527  0.38122611
   0.47644396  0.63092029  0.62045002
   0.28228068  0.77081439  0.59757565
   0.20850083  0.64339984  0.37179454
   0.74045763  0.71052201  0.53588024
   0.98657577  0.99062758  0.55036537
   0.70310456  0.73681815  0.43426040
   0.78791082  0.05938543  0.57679637
   0.45631390  0.32845159  0.40928789
   0.44875440  0.93887994  0.59421307
   0.50805103  0.04342693  0.58641200
   0.24424715  0.37040632  0.42094710
   0.65852534  0.33000211  0.45034791
   0.46026927  0.31908532  0.52896157
   0.33729937  0.58994254  0.39908301
   0.80332139  0.47627303  0.57982184
   0.06920979  0.89885916  0.48050551
   0.21190758  0.14445432  0.37359659
   0.07823286  0.49398500  0.49468762
   0.55757019  0.85234010  0.47473025
   0.71845520  0.58447468  0.60963625
   0.28664212  0.21010174  0.45911077
   0.08843519  0.62563699  0.56766980
   0.35275266  0.02152981  0.57813577
   0.48622241  0.48205444  0.57287633
   0.47660972  0.50196682  0.69204553

 position of ions in cartesian coordinates  (Angst):
  12.58610299  9.28195855 19.83981839
  13.35372416  6.32096322 22.25303237
  17.82881058  1.86443882 17.51191880
  21.68887124  5.04982631  9.57948250
  18.57310935  3.75615001 10.03976840
  22.81522226 17.09935504  8.74523415
  14.64921175 17.45931981 10.08747787
  19.20986618 18.03075152  9.91976410
  17.55830880  2.55833369 12.31360861
  21.43183474  4.52052541 13.68882336
  13.66032332  5.51363182  8.22435231
  20.87047116  6.06716722 16.55499178
  13.89654589  6.54672329 16.51393078
  13.89530510 15.78114707 15.53778647
   0.79049651  6.11990254 17.53357069
  21.89589338  7.60211669 12.20777585
  17.46806539  9.60990927 11.35790489
  18.70187843  6.93644099 17.08042365
  13.83846347 10.30523625 10.16284657
  16.81946503 11.70510107 10.30871170
  19.69247867  9.82944088 11.28015755
   0.11154425 10.94156933  9.61828518
  19.39294954 12.90878407 12.57986315
  20.51111330 10.84274080 19.40754126
  12.17364643 17.85965258 11.33679820
   5.22293275 17.76161802 10.57067472
   5.06558822  4.31016263  8.58198589
   3.68730349  5.97649684  7.50000000
   7.99605455  2.81940544  8.89228530
   5.21406665  0.82920834  8.67629559
  11.96574835 14.98591508 14.70100144
   8.70643534  4.31825807 17.41886575
   5.69215495  1.68663773 16.09215318
   7.38347683  8.82751530 11.89413327
   9.57419369  7.95041833 10.90632902
   9.32938927 14.37219961 10.45189795
   5.71709332 11.87720376  7.91249741
   7.29826932  7.58329756  9.92688859
   9.49267817 10.58787005  9.10861924
   3.26254231  8.84268608  9.46104865
  13.88920341 12.64839014  9.47364424
  10.98005707 15.61013129 11.93160111
   2.86027180  5.85678206 16.46119342
   1.70702337 12.04898651 17.36245163
   5.69993341  7.01574350 18.34052777
   5.80174756 14.76939606 18.00702220
  13.41186773  9.93504523 19.51359201
  12.65513894  8.88968117 20.85736954
  12.49214821  5.62845555 22.08525024
  14.36728477  5.91358749 22.01029910
   8.63740362 11.74899635 11.80179838
   8.11940335  9.13371715 11.30144811
  20.15048065 10.25211871 18.72974505
   8.16378129 17.41048978 14.25671598
   0.78329632 16.89923695 14.20854694
  14.89790566  1.42919560 13.15609244
   1.60709516  0.94711409 10.62190669
  10.57955332  2.34782959 11.30707087
  18.86679123  3.87160553 12.98914499
  22.78177389  3.29001335 16.09725161
   6.43261122  5.42138249 12.05751853
  13.02497128 14.04561295 11.87575437
   9.15484698 17.67099299 16.65652377
   4.15590840  6.34186120 10.89510594
  20.28674643 12.39520529 17.13418103
  20.26706433 17.52644236 12.55556607
   7.04790320 13.78911669 12.31057251
   9.87045805  4.73421333 10.20482654
  18.99156110  8.43067755 13.98404670
  23.02624299  1.31875623 14.01274396
  11.91180228  8.37812188 16.94134988
   0.80854198 16.67059137 11.54385891
  22.54593219  5.49427402  9.44298747
   1.63005096  6.09065222 10.11814055
   4.87647100 13.20393591 10.62861051
   0.91072893  7.59464512 13.41772355
   5.61362218  5.18101847 15.80145214
   9.30507960  3.55855888 17.35043572
  10.64995535 10.23670863 15.60662372
  21.29882566 13.57439927 14.98689182
  20.34739459  1.95787901 11.88993046
  13.40476402 12.09287863 10.11168720
   3.33439013  2.88355087 10.10739962
   8.22881579 13.86477639 16.31259173
  21.32759690 15.31330728 12.98949491
   1.43600223  9.72877939 11.88926245
  16.58313365 10.06030463 11.28987623
   1.76725442 14.80154966 12.98450890
  16.39878711 14.99633320 11.63069310
  17.09434581  0.88802131 14.59751672
  21.51364834  5.47614262 16.98930455
  17.20848527 15.45927864 16.47822986
  14.63491423  9.55703168 13.07549710
  13.03010146 11.41099800 12.56123752
   9.95254114  4.51179229 14.94664810
  22.90303759 13.19667544 12.81787194
  15.31422155 10.76552612 17.02707882
   9.28028320 13.55627769 13.84465304
  14.10975474  9.38073831 10.36813464
  16.85500701 11.43005909 14.97544185
   3.44709655  6.60109352 16.67741127
   1.56183802  9.94111826 14.57087215
  19.17156503 16.03134267 14.42707186
  19.38959778  6.44001838 12.14868300
  12.34593599  5.41316947 14.31858970
  17.25168402  9.04078657 16.01132871
  13.05025010  3.12466491 10.61647095
  18.86866258  4.64651295 10.30420244
   5.55892333 17.27408272 13.65458756
  16.21984705 14.06015646 14.56258026
  21.62918919 17.21112914 14.86519983
  12.30818899  5.75858697 10.71452528
  10.94569294 18.00819997 14.68553288
  19.61115751  1.71844013 14.51128004
  12.59301152  2.10962891 13.07168996
   8.19848185  3.38158106 11.81890631
   0.27532438 17.44013033  9.01248080
  10.54643055 10.87767272 18.11576835
  15.33358375 16.76934745 10.19493214
   1.78612593 12.43164437 11.71794928
  10.60815189  7.35553824 14.85138634
  16.83785811 12.69249221 10.20446890
  10.62195270 12.83849628 16.05698988
  17.61819454 12.85383871 12.80442605
  18.22563038  2.19087055 16.69013446
  23.25384464  5.58158514 12.05458163
  12.54408320  9.21164342 14.34801178
  19.12182067  9.04361594 11.38355200
   5.51938841  2.63157484 16.27393319
   4.76497818 15.05333538 12.64952801
   5.61900498 10.12763073 14.05792098
   1.43488344 11.33539315 16.76650578
   1.07865368 10.91526714  9.52151395
  18.74750502 17.73531744 16.28710336
  12.59506368  0.50191281 10.87439573
  14.20225670  5.65914585 16.26682566
  20.16990973  0.07395004  9.92550906
   2.22199659  2.70047811 12.55674536
   4.01270617  3.69849274 14.27289939
  15.00637423 12.76530097 12.22697399
  10.22576747  7.42551174 10.38808912
  13.43588416  1.08737770 15.36905376
   3.54535369 10.75328740 10.45651017
   6.26813510 10.91510113 10.54651395
  10.30702051  5.83862961 12.64390410
   5.57211440  2.87241773 11.55719116
   1.70345023  2.72356840 15.12416499
  19.78258782  9.85750663 16.12707153
  14.54261460  5.07285684 11.04652184
  14.10921452 16.15556596 12.56053950
   0.73477264  3.53889327 10.45741115
  14.22895143  3.54824051 14.70723222
   3.10901352 17.00414686 12.89022683
   1.87901243  5.08138687 13.75272970
   8.70850178  1.94078151 15.28381122
   1.56384161 12.62909424 14.39974719
  15.60335582  7.52728779 11.56015827
  18.71450071 13.22177597 15.16589227
  16.47777184 17.34580083 12.64014391
  14.01250757 11.51789588 14.86552123
  16.92262721  5.32192921 12.14235921
  22.88608555  5.69317847 14.71130572
   3.71372983 11.42258123 15.34370972
  14.82716522  5.92171361 13.65139239
  19.19218470  7.17796062 16.27856668
  22.44155659  0.49367766 11.20910044
   6.60205445  3.53436201 13.94261746
   5.83544193  8.02830396 12.39472924
   6.41703234 15.41347338 15.29041427
   4.76813504 12.42343385 13.08920785
   3.44435051  8.62697504 13.24126574
   5.25519799  7.65758427 14.96392639
  21.33745138  8.20429214 12.73515651
  20.36286723 12.76750071 12.47800922
  17.28034963  1.68227812 11.96927179
   5.20160189 16.84878525 10.96698378
   5.92433856  7.29142611 17.43937675
  14.76154431 16.00549230 15.95348495
   9.60385771 14.29878658 11.38342242
  21.48621551  3.55245637 13.66334053
   3.10309823  8.03742302  8.93260776
   3.63220806  5.50021683  8.34890949
   8.73253334  2.37219755  9.35415932
   0.80970341  5.29066305 17.02908232
  13.40739700  4.65476936  8.60535697
   5.76142497 13.96631733 17.46485740
   4.85490080 11.74990155  8.34376522
   6.44687148  7.10699146  9.87629901
   8.55333550 10.82900896  9.20004704
   5.29986878  1.01806603  9.62744117
   5.64688233  3.55318002  8.85384768
  11.73544815 16.16960912 12.22767567
  12.87715241 15.00383966 14.36595854
  12.75911119 11.69858602 17.05536343
  11.19191190  2.25700098 16.04083953
   6.15935684 12.59478786 15.27335832
  10.33655221 15.41085816 15.60978642
  17.92272295 11.17732387 17.45974079
  19.77882671 15.07081927 16.74794778
  14.98537496 13.40367462 16.70578073
   0.19085847  0.60625822 16.21032898
   6.64556623  0.06350379 15.95065114
  11.76500786 17.64936520 16.90030505
  13.19946523  7.45639642 22.67235830
  10.02198156  8.11587269 19.44154904
   1.94841153 10.98908596 10.92575188
   9.58457930 13.92034718 15.42594846
  19.70678075  7.99967650 12.57708649
   0.40008717 17.94875972 10.58159830
   0.34415087  5.14987929 10.51358498
   0.21624965  2.08517666 15.39109345
  14.27219463 11.91975212 16.42766504
   5.00949999  8.62605142 13.70249711
  21.42278905 13.69169878 13.34099278
  12.18741762  2.00159257 11.45195358
   9.78712378  3.10671911 15.85019943
   1.95373172  2.52197018 10.94101594
  16.43233932  0.81266960 13.10088356
  15.56990048 16.27354967 11.76083937
  15.21965321  9.13359373 11.56390395
   4.64622069 16.53530673 12.47363180
   5.02489063  6.64390522 16.22507524
  15.77173899 14.74269689 15.98957753
   5.07926699 11.63255473 14.47895902
   8.63383069 13.32142384 12.34509184
  18.67037760 16.10041509 16.01399710
  20.59765778 16.53167546 13.76404347
  13.50903565 10.42443220 13.77264112
  13.81023502  2.09690687 14.11819994
  20.08975493  2.75647993 13.31199648
  19.56016266 10.93683023 17.36518678
   3.13099191  6.52942423  9.59392828
  18.51026388  5.07284540 11.87902451
   9.34522920  3.21642612 10.64589911
  20.04067551 13.59119393 16.03771727
   6.63122108 16.95517815 14.77349411
   0.54020936  5.98811771 13.50205012
  13.45117902 12.60314055 11.70943634
   5.39023881 13.63805193 12.15046292
  13.90042684  5.14930110 14.73822343
  22.83074768  4.93506888 16.20068164
  20.81044864  0.46044249 11.40392910
   2.45035742  3.54254774 13.91878044
   1.12715225 13.28353886 12.97472440
   5.42920062  3.72972992 15.08177268
  13.14328356  4.67138795 10.24864117
  11.15416985 11.43305611 16.67978532
   6.60855621 13.96811020 16.06484528
   4.88127424 11.65920104  9.99508876
  17.33507173 12.87553767 14.40626486
  23.09701592 17.95139715 14.79567409
  16.46058793 13.35205634 11.67438144
  18.44601236  1.07613742 15.50622829
  10.68289909  5.95194918 11.00303640
  10.50592152 17.01366578 15.97444785
  11.89413230  0.78694960 15.76472881
   5.71814202  6.71222076 11.31647527
  15.41693082  5.98004644 12.10686792
  10.77549936  5.78222067 14.22026769
   7.89661487 10.69048859 10.72869482
  18.80679377  8.63065648 15.58756292
   1.62029077 16.28843975 12.91760565
   4.96103076  2.61769098 10.04353415
   1.83153245  8.95161915 13.29886860
  13.05343995 15.44545689 12.76234739
  16.81996625 10.59140419 16.38907472
   6.71066321  3.80730339 12.34244318
   2.07038223 11.33731610 15.26087536
   8.25839646  0.39014676 15.54223575
  11.38309605  8.73542274 15.40084436
  11.15805067  9.09625961 18.60451374



--------------------------------------------------------------------------------------------------------


 k-point  1 :   0.0000 0.0000 0.0000  plane waves:  289505
 k-point  2 :   0.3333 0.0000 0.0000  plane waves:  289422
 k-point  3 :   0.0000 0.3333 0.0000  plane waves:  289550
 k-point  4 :   0.3333 0.3333 0.0000  plane waves:  289551
 k-point  5 :  -0.3333 0.3333 0.0000  plane waves:  289551

 maximum and minimum number of plane-waves per node :     72451    72309

 maximum number of plane-waves:    289551
 maximum index in each direction: 
   IXMAX=   43   IYMAX=   33   IZMAX=   49
   IXMIN=  -43   IYMIN=  -33   IZMIN=  -49


 real space projection operators:
  total allocation   :      13571.91 KBytes
  max/ min on nodes  :       3398.17       3388.34


 parallel 3D FFT for wavefunctions:
    minimum data exchange during FFTs selected (reduces bandwidth)
 parallel 3D FFT for charge:
    minimum data exchange during FFTs selected (reduces bandwidth)


 total amount of memory used by VASP MPI-rank0   697046. kBytes
=======================================================================

   base      :      30000. kBytes
   nonlr-proj:      16688. kBytes
   fftplans  :      30982. kBytes
   grid      :      57864. kBytes
   one-center:       1057. kBytes
   wavefun   :     560455. kBytes

     INWAV:  cpu time    0.0001: real time    0.0000
 Broyden mixing: mesh for mixing (old mesh)
   NGX = 85   NGY = 67   NGZ = 99
  (NGX  =256   NGY  =200   NGZ  =300)
  gives a total of 563805 points

 initial charge density was supplied:
 charge density of overlapping atoms calculated
 number of electron    1252.0000000 magnetization 
 keeping initial charge density in first step


--------------------------------------------------------------------------------------------------------


 Maximum index for non-local projection operator          655
 Maximum index for augmentation-charges          426 (set IRDMAX)


--------------------------------------------------------------------------------------------------------


 First call to EWALD:  gamma=   0.079
 Maximum number of real-space cells 3x 3x 2
 Maximum number of reciprocal cells 3x 2x 3

    FEWALD:  cpu time    0.0245: real time    0.0245


--------------------------------------- Iteration      1(   1)  ---------------------------------------


    POTLOK:  cpu time    0.2761: real time    0.2809
    SETDIJ:  cpu time    0.5718: real time    0.5732
     EDDAV:  cpu time   80.9657: real time   81.2428
       DOS:  cpu time    0.0019: real time    0.0019
    --------------------------------------------
      LOOP:  cpu time   81.8154: real time   82.0988

 eigenvalue-minimisations  :  8544
 total energy-change (2. order) : 0.1284830E+05  (-0.4900909E+05)
 number of electron    1252.0000000 magnetization 
 augmentation part     1252.0000000 magnetization 

 DIPCOR: dipole corrections for dipol
 direction  3 min pos    65,
 dipolmoment           0.000000      0.000000      0.342413 electrons x Angstroem
 Tr[quadrupol]    -94186.135895

 energy correction for charged system         0.000000 eV
 dipol+quadrupol energy correction           -0.000953 eV
 added-field ion interaction         39.335276 eV  (added to PSCEN)


 Free energy of the ion-electron system (eV)
  ---------------------------------------------------
  alpha Z        PSCENC =       524.12316646
  Ewald energy   TEWEN  =    306364.61138101
  -Hartree energ DENC   =   -368689.90856860
  -exchange      EXHF   =         0.00000000
  -V(xc)+E(xc)   XCENC  =      3768.99349430
  PAW double counting   =     60076.77464710   -59094.97975615
  entropy T*S    EENTRO =        -1.66850747
  eigenvalues    EBANDS =     -4894.50928365
  atomic energy  EATOM  =     74794.86799615
  Solvation  Ediel_sol  =         0.00000000
  ---------------------------------------------------
  free energy    TOTEN  =     12848.30456915 eV

  energy without entropy =    12849.97307662  energy(sigma->0) =    12849.13882288


--------------------------------------------------------------------------------------------------------




--------------------------------------- Iteration      1(   2)  ---------------------------------------


     EDDAV:  cpu time   97.5578: real time   97.8751
       DOS:  cpu time    0.0011: real time    0.0011
    --------------------------------------------
      LOOP:  cpu time   97.5589: real time   97.8763

 eigenvalue-minimisations  : 10784
 total energy-change (2. order) :-0.1218267E+05  (-0.1178420E+05)
 number of electron    1252.0000000 magnetization 
 augmentation part     1252.0000000 magnetization 

 DIPCOR: dipole corrections for dipol
 direction  3 min pos    65,
 dipolmoment           0.000000      0.000000      0.342413 electrons x Angstroem
 Tr[quadrupol]    -94186.135895

 energy correction for charged system         0.000000 eV
 dipol+quadrupol energy correction           -0.000953 eV
 added-field ion interaction         39.335276 eV  (added to PSCEN)


 Free energy of the ion-electron system (eV)
  ---------------------------------------------------
  alpha Z        PSCENC =       524.12316646
  Ewald energy   TEWEN  =    306364.61138101
  -Hartree energ DENC   =   -368689.90856860
  -exchange      EXHF   =         0.00000000
  -V(xc)+E(xc)   XCENC  =      3768.99349430
  PAW double counting   =     60076.77464710   -59094.97975615
  entropy T*S    EENTRO =        -0.00000000
  eigenvalues    EBANDS =    -17078.84935976
  atomic energy  EATOM  =     74794.86799615
  Solvation  Ediel_sol  =         0.00000000
  ---------------------------------------------------
  free energy    TOTEN  =       665.63300050 eV

  energy without entropy =      665.63300050  energy(sigma->0) =      665.63300050


--------------------------------------------------------------------------------------------------------




--------------------------------------- Iteration      1(   3)  ---------------------------------------


     EDDAV:  cpu time   84.0510: real time   84.3261
       DOS:  cpu time    0.0012: real time    0.0012
    --------------------------------------------
      LOOP:  cpu time   84.0521: real time   84.3272

 eigenvalue-minimisations  :  8984
 total energy-change (2. order) :-0.2653898E+04  (-0.2644474E+04)
 number of electron    1252.0000000 magnetization 
 augmentation part     1252.0000000 magnetization 

 DIPCOR: dipole corrections for dipol
 direction  3 min pos    65,
 dipolmoment           0.000000      0.000000      0.342413 electrons x Angstroem
 Tr[quadrupol]    -94186.135895

 energy correction for charged system         0.000000 eV
 dipol+quadrupol energy correction           -0.000953 eV
 added-field ion interaction         39.335276 eV  (added to PSCEN)


 Free energy of the ion-electron system (eV)
  ---------------------------------------------------
  alpha Z        PSCENC =       524.12316646
  Ewald energy   TEWEN  =    306364.61138101
  -Hartree energ DENC   =   -368689.90856860
  -exchange      EXHF   =         0.00000000
  -V(xc)+E(xc)   XCENC  =      3768.99349430
  PAW double counting   =     60076.77464710   -59094.97975615
  entropy T*S    EENTRO =        -0.00000000
  eigenvalues    EBANDS =    -19732.74758594
  atomic energy  EATOM  =     74794.86799615
  Solvation  Ediel_sol  =         0.00000000
  ---------------------------------------------------
  free energy    TOTEN  =     -1988.26522568 eV

  energy without entropy =    -1988.26522568  energy(sigma->0) =    -1988.26522568


--------------------------------------------------------------------------------------------------------




--------------------------------------- Iteration      1(   4)  ---------------------------------------


     EDDAV:  cpu time   82.7418: real time   83.0234
       DOS:  cpu time    0.0011: real time    0.0011
    --------------------------------------------
      LOOP:  cpu time   82.7429: real time   83.0245

 eigenvalue-minimisations  :  8824
[...]
      7.04790     13.78912     12.31057        -0.357603     -0.096397     -0.120187
      9.87046      4.73421     10.20483         0.414278      0.027236      0.527560
     18.99156      8.43068     13.98405         0.000798     -0.005612     -0.002753
     23.02624      1.31876     14.01274         0.000845      0.000931      0.002536
     11.91180      8.37812     16.94135        -0.003914     -0.009624     -0.010376
      0.80854     16.67059     11.54386        -0.108327      0.441815     -0.283780
     22.54593      5.49427      9.44299         0.186543     -0.187225      0.418784
      1.63005      6.09065     10.11814         0.290109     -0.136326     -0.022861
      4.87647     13.20394     10.62861         0.419320     -0.164916      0.427069
      0.91073      7.59465     13.41772         0.444486      0.059012      0.187365
      5.61362      5.18102     15.80145        -0.003592     -0.000873     -0.001143
      9.30508      3.55856     17.35044        -0.003297     -0.006866     -0.004913
     10.64996     10.23671     15.60662         0.004967     -0.005177      0.004529
     21.29883     13.57440     14.98689        -0.002587     -0.003990      0.004069
     20.34739      1.95788     11.88993        -0.088587     -0.039525      0.442840
     13.40476     12.09288     10.11169        -0.261557      0.189739      0.108241
      3.33439      2.88355     10.10740        -0.034202     -0.060090      0.198101
      8.22882     13.86478     16.31259        -0.004590      0.006681      0.000803
     21.32760     15.31331     12.98949         0.323025     -1.485282      0.198891
      1.43600      9.72878     11.88926         0.534137      0.261371      0.076485
     16.58313     10.06030     11.28988        -0.117299     -0.557222     -0.034696
      1.76725     14.80155     12.98451        -0.028811     -6.353776      0.309504
     16.39879     14.99633     11.63069         1.817256     -3.821542     -0.201233
     17.09435      0.88802     14.59752        -0.001003      0.001914      0.003104
     21.51365      5.47614     16.98930        -0.001497      0.000753     -0.002310
     17.20849     15.45928     16.47823         0.006608      0.000845     -0.004682
     14.63491      9.55703     13.07550         1.878235     -1.172355     -1.195611
     13.03010     11.41100     12.56124        -3.547735     -2.887499      1.859260
      9.95254      4.51179     14.94665         0.006710     -0.002660     -0.000566
     22.90304     13.19668     12.81787         0.416857      0.296318      0.250341
     15.31422     10.76553     17.02708        -0.003874     -0.002587     -0.005322
      9.28028     13.55628     13.84465         0.001987      0.005069      0.005610
     14.10975      9.38074     10.36813         0.278876     -0.126275      0.377978
     16.85501     11.43006     14.97544         0.002461      0.002019     -0.000837
      3.44710      6.60109     16.67741        -0.003544     -0.000520      0.000914
      1.56184      9.94112     14.57087         0.003778     -0.002231     -0.004322
     19.17157     16.03134     14.42707        -0.008256      0.001204     -0.000913
     19.38960      6.44002     12.14868        -0.136824      0.245799      0.196310
     12.34594      5.41317     14.31859         0.011121      0.002780      0.008575
     17.25168      9.04079     16.01133         0.004147      0.003797     -0.001974
     13.05025      3.12466     10.61647        -1.374231     -1.822173      0.529520
     18.86866      4.64651     10.30420        -0.044264     -0.025416      0.764379
      5.55892     17.27408     13.65459        -0.809087      0.172350     -0.942488
     16.21985     14.06016     14.56258         0.003809      0.009395     -0.002562
     21.62919     17.21113     14.86520         0.000655      0.003012      0.001257
     12.30819      5.75859     10.71453        -7.871782      6.655535      3.196754
     10.94569     18.00820     14.68553        -0.006083     -0.000538     -0.001122
     19.61116      1.71844     14.51128         0.000645      0.000589     -0.003877
     12.59301      2.10963     13.07169        -2.073542      0.598363     -1.042756
      8.19848      3.38158     11.81891        -0.112358      0.163292      0.042717
      0.27532     17.44013      9.01248        -0.250941      0.115791      0.331294
     10.54643     10.87767     18.11577         0.010550     -0.011884      0.008173
     15.33358     16.76935     10.19493        -0.564108      0.123164      0.632245
      1.78613     12.43164     11.71795         0.013629     -0.128457      0.103648
     10.60815      7.35554     14.85139        -0.001377     -0.008382     -0.003017
     16.83786     12.69249     10.20447        -0.051431      0.279934      0.494588
     10.62195     12.83850     16.05699        -0.009486      0.002299      0.007088
     17.61819     12.85384     12.80443        -0.381768      0.235862     -1.046424
     18.22563      2.19087     16.69013        -0.009689      0.005776      0.006037
     23.25384      5.58159     12.05458         0.242094      0.006971     -0.011514
     12.54408      9.21164     14.34801        -0.006852      0.009983      0.003217
     19.12182      9.04362     11.38355         0.335279     -0.394149      0.444852
      5.51939      2.63157     16.27393        -0.003254     -0.001930      0.000588
      4.76498     15.05334     12.64953         0.594472     -6.677174      0.335067
      5.61900     10.12763     14.05792         0.002284      0.003843      0.000022
      1.43488     11.33539     16.76651        -0.005954     -0.001923     -0.003200
      1.07865     10.91527      9.52151         0.188169      0.219476      0.442323
     18.74751     17.73532     16.28710        -0.002121     -0.004312      0.004216
     12.59506      0.50191     10.87440        -0.220075      0.380821      0.168508
     14.20226      5.65915     16.26683         0.000647      0.006433     -0.000257
     20.16991      0.07395      9.92551        -0.067939      0.005915      0.303996
      2.22200      2.70048     12.55675        -0.040466     -0.053979     -0.779687
      4.01271      3.69849     14.27290         0.013333      0.009248     -0.000799
     15.00637     12.76530     12.22697         2.650993      0.211653     -0.626249
     10.22577      7.42551     10.38809         0.261445     -0.704152      0.522333
     13.43588      1.08738     15.36905        -0.002160     -0.001639      0.001611
      3.54535     10.75329     10.45651        -0.003403      0.700137      0.083919
      6.26814     10.91510     10.54651         0.160660      0.307428      0.043909
     10.30702      5.83863     12.64390         0.387197      0.098789     -0.683219
      5.57211      2.87242     11.55719         0.327568      0.283319     -0.357789
      1.70345      2.72357     15.12416        -0.002078     -0.002374      0.005142
     19.78259      9.85751     16.12707        -0.000121      0.001277      0.004899
     14.54261      5.07286     11.04652         1.389002      0.653322      0.850701
     14.10921     16.15557     12.56054        23.538654     14.635411     -4.514973
      0.73477      3.53889     10.45741         0.416109      0.154089      0.275661
     14.22895      3.54824     14.70723         0.001239     -0.004988     -0.003459
      3.10901     17.00415     12.89023         0.021615     -0.149164     -0.330028
      1.87901      5.08139     13.75273        -0.011639      0.001421      0.002478
      8.70850      1.94078     15.28381         0.000387     -0.004525     -0.001744
      1.56384     12.62909     14.39975         0.003149     -0.002587      0.001294
     15.60336      7.52729     11.56016        -0.328287      0.201538      0.456015
     18.71450     13.22178     15.16589         0.001753      0.006070     -0.003456
     16.47777     17.34580     12.64014        -0.778044      0.368140     -0.206580
     14.01251     11.51790     14.86552        -0.001011      0.000114      0.001235
     16.92263      5.32193     12.14236         0.236446      0.054006     -0.017110
     22.88609      5.69318     14.71131        -0.000755     -0.001548     -0.002076
      3.71373     11.42258     15.34371         0.001622      0.002148     -0.000161
     14.82717      5.92171     13.65139         0.355744      0.273371     -0.742691
     19.19218      7.17796     16.27857         0.004775     -0.000235      0.000917
     22.44156      0.49368     11.20910        -0.302249     -0.372100     -0.321161
      6.60205      3.53436     13.94262        -0.000644     -0.004519      0.001509
      5.83544      8.02830     12.39473        -0.026832     -0.700313     -0.624174
      6.41703     15.41347     15.29041        -0.004982     -0.008042      0.003770
      4.76814     12.42343     13.08921         0.251423      0.536901     -0.375633
      3.44435      8.62698     13.24127        -0.307126      0.085935      0.172576
      5.25520      7.65758     14.96393        -0.012892      0.000572      0.001945
     21.33745      8.20429     12.73516        -0.253286     -0.143824     -0.135646
     20.36287     12.76750     12.47801         0.320671      0.274609      0.436037
     17.28035      1.68228     11.96927        -0.177243     -0.270102      0.485472
      5.20160     16.84879     10.96698        -0.330185      0.365927      0.370752
      5.92434      7.29143     17.43938        -0.000566      0.001944     -0.000026
     14.76154     16.00549     15.95348        -0.004907     -0.000742      0.001229
      9.60386     14.29879     11.38342        -0.515450     -0.401171      0.250861
     21.48622      3.55246     13.66334        -0.762604     -0.029858     -0.110572
      3.10310      8.03742      8.93261         0.096787     -0.243186      0.318268
      3.63221      5.50022      8.34891        -0.160983      0.543478      0.361448
      8.73253      2.37220      9.35416         0.193615      0.606904      0.350059
      0.80970      5.29066     17.02908        -0.000270      0.001895     -0.002959
     13.40740      4.65477      8.60536        -0.203875      0.161554      0.225612
      5.76142     13.96632     17.46486        -0.002612     -0.004796     -0.001000
      4.85490     11.74990      8.34377         0.077479     -0.131698      0.508708
      6.44687      7.10699      9.87630         0.023664      0.044667      0.706498
      8.55334     10.82901      9.20005        -0.084660     -0.025442      0.755174
      5.29987      1.01807      9.62744        -0.072339      0.790529      0.119079
      5.64688      3.55318      8.85385        -0.374929     -0.060051      0.456404
     11.73545     16.16961     12.22768        -2.217498      1.041721     -0.683526
     12.87715     15.00384     14.36596         0.000259     -0.004087     -0.000820
     12.75911     11.69859     17.05536        -0.015833      0.005824     -0.000119
     11.19191      2.25700     16.04084         0.010081      0.019698     -0.005927
      6.15936     12.59479     15.27336         0.003987      0.002554      0.008207
     10.33655     15.41086     15.60979         0.006209     -0.002487     -0.004035
     17.92272     11.17732     17.45974         0.003472     -0.001907      0.002239
     19.77883     15.07082     16.74795        -0.001457     -0.002929     -0.000213
     14.98537     13.40367     16.70578         0.006024      0.000245     -0.000609
      0.19086      0.60626     16.21033         0.000251     -0.001305      0.006811
      6.64557      0.06350     15.95065        -0.007576      0.003142      0.003183
     11.76501     17.64937     16.90031         0.000331      0.001218      0.003805
     13.19947      7.45640     22.67236         0.001297      0.027508      0.012161
     10.02198      8.11587     19.44155         0.017145     -0.002757      0.016449
      1.94841     10.98909     10.92575        -0.062764     -0.138834      0.038579
      9.58458     13.92035     15.42595         0.004482     -0.003001      0.000329
     19.70678      7.99968     12.57709         0.139485     -0.171553     -0.298696
      0.40009     17.94876     10.58160         0.099524     -0.141797      0.305114
      0.34415      5.14988     10.51358         0.045084      0.036321      0.060648
      0.21625      2.08518     15.39109         0.003450      0.000203     -0.000619
     14.27219     11.91975     16.42767         0.000244     -0.001854     -0.003252
      5.00950      8.62605     13.70250         0.000867      0.000205      0.000878
     21.42279     13.69170     13.34099         0.204879      0.233004     -0.633471
     12.18742      2.00159     11.45195         0.152192     -0.075907      0.466002
      9.78712      3.10672     15.85020         0.001053     -0.001811     -0.000170
      1.95373      2.52197     10.94102         0.073723     -0.118367      0.058335
     16.43234      0.81267     13.10088         0.110812     -0.095315     -0.315417
     15.56990     16.27355     11.76084        -0.469497      4.551156     -0.225088
     15.21965      9.13359     11.56390         0.090983      0.055856      0.205373
      4.64622     16.53531     12.47363        -0.721237      6.161480     -0.357874
      5.02489      6.64391     16.22508        -0.001469     -0.000469      0.000464
     15.77174     14.74270     15.98958         0.001965     -0.001391     -0.002655
      5.07927     11.63255     14.47896         0.001484     -0.003242     -0.002392
      8.63383     13.32142     12.34509        -0.418265      0.061749     -0.188764
     18.67038     16.10042     16.01400         0.002035     -0.002331     -0.004959
     20.59766     16.53168     13.76404         0.001109     -0.000280     -0.001181
     13.50904     10.42443     13.77264        -0.005023     -0.002166      0.001506
     13.81024      2.09691     14.11820        -0.002910     -0.002562      0.001621
     20.08975      2.75648     13.31200        -0.179943     -0.015226     -0.431493
     19.56016     10.93683     17.36519         0.000107     -0.001063      0.000440
      3.13099      6.52942      9.59393        -0.100029     -0.111029      0.045589
     18.51026      5.07285     11.87902        -0.264250      0.099853      0.076419
      9.34523      3.21643     10.64590        -0.146677     -0.321706      0.225497
     20.04068     13.59119     16.03772         0.003615     -0.000622     -0.002778
      6.63122     16.95518     14.77349        -0.001800      0.002142     -0.003413
      0.54021      5.98812     13.50205         0.303028      0.197594     -0.416791
     13.45118     12.60314     11.70944         3.917852     -0.846490     -2.493238
      5.39024     13.63805     12.15046         0.146904     -0.591881      0.000196
     13.90043      5.14930     14.73822        -0.008112     -0.001044     -0.002287
     22.83075      4.93507     16.20068         0.004628     -0.001065     -0.000427
     20.81045      0.46044     11.40393         0.027418      0.040412      0.106508
      2.45036      3.54255     13.91878         0.002160     -0.001652     -0.001770
      1.12715     13.28354     12.97472        -0.119677     -0.572956     -0.251597
      5.42920      3.72973     15.08177        -0.001541      0.000534     -0.000499
     13.14328      4.67139     10.24864         8.346713     -5.361958     -3.597947
     11.15417     11.43306     16.67979         0.000765     -0.000287      0.006024
      6.60856     13.96811     16.06485         0.000086     -0.001940     -0.004160
      4.88127     11.65920      9.99509         0.064033     -0.062000      0.013569
     17.33507     12.87554     14.40626        -0.000152     -0.003717      0.002700
     23.09702     17.95140     14.79567         0.003250      0.000322     -0.001784
     16.46059     13.35206     11.67438        -0.685649     -1.357172      0.348966
     18.44601      1.07614     15.50623        -0.001026      0.000971     -0.005873
     10.68290      5.95195     11.00304        -1.153440      0.539266      0.430387
     10.50592     17.01367     15.97445        -0.003507     -0.003925      0.005682
     11.89413      0.78695     15.76473         0.000841     -0.003375      0.001262
      5.71814      6.71222     11.31648         0.012506     -0.120386     -0.107168
     15.41693      5.98005     12.10687        -0.139036     -0.472833     -0.836665
     10.77550      5.78222     14.22027        -0.003891      0.001886     -0.001212
      7.89661     10.69049     10.72869        -0.141763     -0.077397     -0.068360
     18.80679      8.63066     15.58756         0.000258      0.000017      0.002872
      1.62029     16.28844     12.91761        -0.327585      6.433402     -0.546389
      4.96103      2.61769     10.04353        -0.073727     -0.041545      0.059348
      1.83153      8.95162     13.29887         0.056280     -0.124893     -0.306630
     13.05344     15.44546     12.76235       -22.315793    -15.845169      4.723984
     16.81997     10.59140     16.38907        -0.003152      0.000352     -0.000683
      6.71066      3.80730     12.34244        -0.232937      0.001783     -0.766095
      2.07038     11.33732     15.26088        -0.002383      0.001218     -0.005661
      8.25840      0.39015     15.54224         0.001390     -0.001363      0.001997
     11.38310      8.73542     15.40084         0.004518      0.001444     -0.006734
     11.15805      9.09626     18.60451         0.008786     -0.002791      0.002342
 -----------------------------------------------------------------------------------
    total drift:                                0.158015      0.492888      0.169617


--------------------------------------------------------------------------------------------------------



  FREE ENERGIE OF THE ION-ELECTRON SYSTEM (eV)
  ---------------------------------------------------
  free  energy   TOTEN  =     -1859.81232342 eV

  energy  without entropy=    -1859.81232342  energy(sigma->0) =    -1859.81232342



--------------------------------------------------------------------------------------------------------


    POTLOK:  cpu time    0.8285: real time    0.8307


--------------------------------------------------------------------------------------------------------


 stress matrix after NEB project (eV)
    -32.35315      0.19574      0.26863
      0.19574    -33.10453      0.06145
      0.26863      0.06145    -24.73036
  FORCES: max atom, RMS     0.037017    0.006543
  FORCE total and by dimension    0.107715    0.035133
  Stress total and by dimension   52.482906   33.104534
 Quasi-Newton relaxation of ions (Broydens 2nd method)
  g(Force)  = 0.560E-03   g(Stress)= 0.000E+00

 Reset! Starting new Quasi-Newton update for ions 


--------------------------------------------------------------------------------------------------------


  
 reached required accuracy - stopping structural energy minimisation
     LOOP+:  cpu time 1213.8486: real time 1218.0082
    4ORBIT:  cpu time    0.0000: real time    0.0000

 total amount of memory used by VASP MPI-rank0   697046. kBytes
=======================================================================

   base      :      30000. kBytes
   nonlr-proj:      16688. kBytes
   fftplans  :      30982. kBytes
   grid      :      57864. kBytes
   one-center:       1057. kBytes
   wavefun   :     560455. kBytes

  
  
 General timing and accounting informations for this job:
 ========================================================
  
                  Total CPU time used (sec):     1314.142
                            User time (sec):     1311.122
                          System time (sec):        3.020
                         Elapsed time (sec):     1320.808
  
                   Maximum memory used (kb):      990172.
                   Average memory used (kb):           0.
  
                          Minor page faults:      2981200
                          Major page faults:          229
                 Voluntary context switches:         6224
