 vasp.5.4.4.18Apr17-6-g9f103f2a35 (build Oct 20 2021 08:33:53) complex           
 executed on             LinuxGNU date 2024.03.24  22:20:12
 running on   32 total cores
 distrk:  each k-point on   32 cores,    1 groups
 distr:  one band on NCORES_PER_BAND=   4 cores,    8 groups


--------------------------------------------------------------------------------------------------------


 INCAR:
 POTCAR:    PAW_PBE C 08Apr2002                   
 POTCAR:    PAW_PBE H 15Jun2001                   
 POTCAR:    PAW_PBE O 08Apr2002                   
 POTCAR:    PAW_PBE Si 05Jan2001                  
 POTCAR:    PAW_PBE W 08Apr2002                   
 POTCAR:    PAW_PBE C 08Apr2002                   
   VRHFIN =C: s2p2                                                              
   LEXCH  = PE                                                                  
   EATOM  =   147.1560 eV,   10.8157 Ry                                         
                                                                                
   TITEL  = PAW_PBE C 08Apr2002                                                 
   LULTRA =        F    use ultrasoft PP ?                                      
   IUNSCR =        1    unscreen: 0-lin 1-nonlin 2-no                           
   RPACOR =    1.200    partial core radius                                     
   POMASS =   12.011; ZVAL   =    4.000    mass and valenz                      
   RCORE  =    1.500    outmost cutoff radius                                   
   RWIGS  =    1.630; RWIGS  =    0.863    wigner-seitz radius (au A)           
   ENMAX  =  400.000; ENMIN  =  300.000 eV                                      
   ICORE  =        2    local potential                                         
   LCOR   =        T    correct aug charges                                     
   LPAW   =        T    paw PP                                                  
   EAUG   =  644.873                                                            
   DEXC   =    0.000                                                            
   RMAX   =    1.529    core radius for proj-oper                               
   RAUG   =    1.300    factor for augmentation sphere                          
   RDEP   =    1.501    radius for radial grids                                 
   RDEPT  =    1.300    core radius for aug-charge                              
                                                                                
   Atomic configuration                                                         
    4 entries                                                                   
     n  l   j            E        occ.                                          
     1  0  0.50      -273.3789   2.0000                                         
     2  0  0.50       -13.7508   2.0000                                         
     2  1  0.50        -5.2854   2.0000                                         
     3  2  1.50        -5.4423   0.0000                                         
   Description                                                                  
     l       E           TYP  RCUT    TYP  RCUT                                 
     0    -13.7508458     23  1.200                                             
     0     -8.2022199     23  1.200                                             
     1     -5.2854383     23  1.500                                             
     1     34.0145650     23  1.500                                             
     2     -5.4423304      7  1.500                                             
  local pseudopotential read in
  partial core-charges read in
  partial kinetic energy density read in
  atomic valenz-charges read in
  non local Contribution for L=           0  read in
    real space projection operators read in
  non local Contribution for L=           0  read in
    real space projection operators read in
  non local Contribution for L=           1  read in
    real space projection operators read in
  non local Contribution for L=           1  read in
    real space projection operators read in
    PAW grid and wavefunctions read in

   number of l-projection  operators is LMAX  =           4
   number of lm-projection operators is LMMAX =           8

 POTCAR:    PAW_PBE H 15Jun2001                   
   VRHFIN =H: ultrasoft test                                                    
   LEXCH  = PE                                                                  
   EATOM  =    12.4884 eV,    0.9179 Ry                                         
                                                                                
   TITEL  = PAW_PBE H 15Jun2001                                                 
   LULTRA =        F    use ultrasoft PP ?                                      
   IUNSCR =        0    unscreen: 0-lin 1-nonlin 2-no                           
   RPACOR =    0.000    partial core radius                                     
   POMASS =    1.000; ZVAL   =    1.000    mass and valenz                      
   RCORE  =    1.100    outmost cutoff radius                                   
   RWIGS  =    0.700; RWIGS  =    0.370    wigner-seitz radius (au A)           
   ENMAX  =  250.000; ENMIN  =  200.000 eV                                      
   RCLOC  =    0.701    cutoff for local pot                                    
   LCOR   =        T    correct aug charges                                     
   LPAW   =        T    paw PP                                                  
   EAUG   =  400.000                                                            
   RMAX   =    1.123    core radius for proj-oper                               
   RAUG   =    1.200    factor for augmentation sphere                          
   RDEP   =    1.112    radius for radial grids                                 
   RDEPT  =    0.926    core radius for aug-charge                              
                                                                                
   Atomic configuration                                                         
    2 entries                                                                   
     n  l   j            E        occ.                                          
     1  0  0.50        -6.4927   1.0000                                         
     2  1  0.50        -3.4015   0.0000                                         
   Description                                                                  
     l       E           TYP  RCUT    TYP  RCUT                                 
     0     -6.4927494     23  1.100                                             
     0      6.8029130     23  1.100                                             
     1     -4.0817478     23  1.100                                             
  local pseudopotential read in
  atomic valenz-charges read in
  non local Contribution for L=           0  read in
    real space projection operators read in
  non local Contribution for L=           0  read in
    real space projection operators read in
  non local Contribution for L=           1  read in
    real space projection operators read in
    PAW grid and wavefunctions read in

   number of l-projection  operators is LMAX  =           3
   number of lm-projection operators is LMMAX =           5

 POTCAR:    PAW_PBE O 08Apr2002                   
   VRHFIN =O: s2p4                                                              
   LEXCH  = PE                                                                  
   EATOM  =   432.3788 eV,   31.7789 Ry                                         
                                                                                
   TITEL  = PAW_PBE O 08Apr2002                                                 
   LULTRA =        F    use ultrasoft PP ?                                      
   IUNSCR =        1    unscreen: 0-lin 1-nonlin 2-no                           
   RPACOR =    1.200    partial core radius                                     
   POMASS =   16.000; ZVAL   =    6.000    mass and valenz                      
   RCORE  =    1.520    outmost cutoff radius                                   
   RWIGS  =    1.550; RWIGS  =    0.820    wigner-seitz radius (au A)           
   ENMAX  =  400.000; ENMIN  =  300.000 eV                                      
   ICORE  =        2    local potential                                         
   LCOR   =        T    correct aug charges                                     
   LPAW   =        T    paw PP                                                  
   EAUG   =  605.392                                                            
   DEXC   =    0.000                                                            
   RMAX   =    1.553    core radius for proj-oper                               
   RAUG   =    1.300    factor for augmentation sphere                          
   RDEP   =    1.550    radius for radial grids                                 
   RDEPT  =    1.329    core radius for aug-charge                              
                                                                                
   Atomic configuration                                                         
    4 entries                                                                   
     n  l   j            E        occ.                                          
     1  0  0.50      -514.6923   2.0000                                         
     2  0  0.50       -23.9615   2.0000                                         
     2  1  0.50        -9.0305   4.0000                                         
     3  2  1.50        -9.5241   0.0000                                         
   Description                                                                  
     l       E           TYP  RCUT    TYP  RCUT                                 
     0    -23.9615318     23  1.200                                             
     0     -9.5240782     23  1.200                                             
     1     -9.0304911     23  1.520                                             
     1      8.1634956     23  1.520                                             
     2     -9.5240782      7  1.500                                             
  local pseudopotential read in
  partial core-charges read in
  partial kinetic energy density read in
  kinetic energy density of atom read in
  atomic valenz-charges read in
  non local Contribution for L=           0  read in
    real space projection operators read in
  non local Contribution for L=           0  read in
    real space projection operators read in
  non local Contribution for L=           1  read in
    real space projection operators read in
  non local Contribution for L=           1  read in
    real space projection operators read in
    PAW grid and wavefunctions read in

   number of l-projection  operators is LMAX  =           4
   number of lm-projection operators is LMMAX =           8

 POTCAR:    PAW_PBE Si 05Jan2001                  
   VRHFIN =Si: s2p2                                                             
   LEXCH  = PE                                                                  
   EATOM  =   103.0669 eV,    7.5752 Ry                                         
                                                                                
   TITEL  = PAW_PBE Si 05Jan2001                                                
   LULTRA =        F    use ultrasoft PP ?                                      
   IUNSCR =        1    unscreen: 0-lin 1-nonlin 2-no                           
   RPACOR =    1.500    partial core radius                                     
   POMASS =   28.085; ZVAL   =    4.000    mass and valenz                      
   RCORE  =    1.900    outmost cutoff radius                                   
   RWIGS  =    2.480; RWIGS  =    1.312    wigner-seitz radius (au A)           
   ENMAX  =  245.345; ENMIN  =  184.009 eV                                      
   ICORE  =        2    local potential                                         
   LCOR   =        T    correct aug charges                                     
   LPAW   =        T    paw PP                                                  
   EAUG   =  322.069                                                            
   DEXC   =    0.000                                                            
   RMAX   =    1.950    core radius for proj-oper                               
   RAUG   =    1.300    factor for augmentation sphere                          
   RDEP   =    1.993    radius for radial grids                                 
   RDEPT  =    1.837    core radius for aug-charge                              
                                                                                
   Atomic configuration                                                         
    6 entries                                                                   
     n  l   j            E        occ.                                          
     1  0  0.50     -1785.8828   2.0000                                         
     2  0  0.50      -139.4969   2.0000                                         
     2  1  1.50       -95.5546   6.0000                                         
     3  0  0.50       -10.8127   2.0000                                         
     3  1  0.50        -4.0811   2.0000                                         
     3  2  1.50        -4.0817   0.0000                                         
   Description                                                                  
     l       E           TYP  RCUT    TYP  RCUT                                 
     0    -10.8127223     23  1.900                                             
     0     -7.6451159     23  1.900                                             
     1     -4.0811372     23  1.900                                             
     1      2.4879257     23  1.900                                             
     2     -4.0817478      7  1.900                                             
  local pseudopotential read in
  partial core-charges read in
  partial kinetic energy density read in
  atomic valenz-charges read in
  non local Contribution for L=           0  read in
    real space projection operators read in
  non local Contribution for L=           0  read in
    real space projection operators read in
  non local Contribution for L=           1  read in
    real space projection operators read in
  non local Contribution for L=           1  read in
    real space projection operators read in
    PAW grid and wavefunctions read in

   number of l-projection  operators is LMAX  =           4
   number of lm-projection operators is LMMAX =           8

 POTCAR:    PAW_PBE W 08Apr2002                   
   VRHFIN =W : 6s5d                                                             
   LEXCH  = PE                                                                  
   EATOM  =   204.6103 eV,   15.0384 Ry                                         
                                                                                
   TITEL  = PAW_PBE W 08Apr2002                                                 
   LULTRA =        F    use ultrasoft PP ?                                      
   IUNSCR =        1    unscreen: 0-lin 1-nonlin 2-no                           
   RPACOR =    2.330    partial core radius                                     
   POMASS =  183.850; ZVAL   =    6.000    mass and valenz                      
   RCORE  =    2.750    outmost cutoff radius                                   
   RWIGS  =    2.750; RWIGS  =    1.455    wigner-seitz radius (au A)           
   ENMAX  =  223.057; ENMIN  =  167.293 eV                                      
   RCLOC  =    2.147    cutoff for local pot                                    
   LCOR   =        T    correct aug charges                                     
   LPAW   =        T    paw PP                                                  
   EAUG   =  373.438                                                            
   DEXC   =    0.000                                                            
   RMAX   =    2.801    core radius for proj-oper                               
   RAUG   =    1.300    factor for augmentation sphere                          
   RDEP   =    2.886    radius for radial grids                                 
   RDEPT  =    2.230    core radius for aug-charge                              
                                                                                
   Atomic configuration                                                         
   16 entries                                                                   
     n  l   j            E        occ.                                          
     1  0  0.50    -69465.5836   2.0000                                         
     2  0  0.50    -11986.2642   2.0000                                         
     2  1  1.50    -10479.8616   6.0000                                         
     3  0  0.50     -2759.0758   2.0000                                         
     3  1  1.50     -2313.1857   6.0000                                         
     3  2  2.50     -1801.1185  10.0000                                         
     4  0  0.50      -567.6791   2.0000                                         
     4  1  1.50      -421.4694   6.0000                                         
     4  2  2.50      -236.3473  10.0000                                         
     4  3  3.50       -31.2666  14.0000                                         
     5  0  0.50       -77.1085   2.0000                                         
     5  1  1.50       -41.3856   6.0000                                         
     5  2  2.50        -3.3185   5.0000                                         
     6  0  0.50        -5.1438   1.0000                                         
     6  1  0.50        -3.8096   0.0000                                         
     5  3  2.50        -1.3606   0.0000                                         
   Description                                                                  
     l       E           TYP  RCUT    TYP  RCUT                                 
     2     -3.3185288     23  2.500                                             
     2     -1.5965414     23  2.500                                             
     0     -5.1438054     23  2.500                                             
     0      4.9117504     23  2.500                                             
     1      2.7211652     23  2.750                                             
     1     27.2116520     23  2.750                                             
  local pseudopotential read in
  partial core-charges read in
  partial kinetic energy density read in
  atomic valenz-charges read in
  non local Contribution for L=           2  read in
    real space projection operators read in
  non local Contribution for L=           2  read in
    real space projection operators read in
  non local Contribution for L=           0  read in
    real space projection operators read in
  non local Contribution for L=           0  read in
    real space projection operators read in
  non local Contribution for L=           1  read in
    real space projection operators read in
  non local Contribution for L=           1  read in
    real space projection operators read in
    PAW grid and wavefunctions read in

   number of l-projection  operators is LMAX  =           6
   number of lm-projection operators is LMMAX =          18

 Optimization of the real space projectors (new method)

 maximal supplied QI-value         = 25.13
 optimisation between [QCUT,QGAM] = [ 11.31, 22.87] = [ 35.82,146.48] Ry 
 Optimized for a Real-space Cutoff    1.00 Angstroem

   l    n(q)    QCUT    max X(q) W(low)/X(q) W(high)/X(q)  e(spline) 
   0      7    11.310   115.676    0.43E-03    0.13E-02    0.19E-06
   0      7    11.310    87.132    0.43E-03    0.13E-02    0.18E-06
   1      6    11.310     4.429    0.42E-03    0.74E-03    0.11E-06
   1      6    11.310     2.733    0.34E-03    0.55E-03    0.92E-07
 Optimization of the real space projectors (new method)

 maximal supplied QI-value         = 34.20
 optimisation between [QCUT,QGAM] = [ 11.29, 22.57] = [ 35.68,142.71] Ry 
 Optimized for a Real-space Cutoff    1.16 Angstroem

   l    n(q)    QCUT    max X(q) W(low)/X(q) W(high)/X(q)  e(spline) 
   0      8    11.287    19.460    0.40E-03    0.73E-03    0.16E-06
   0      8    11.287    12.209    0.38E-03    0.70E-03    0.15E-06
   1      7    11.287     4.655    0.22E-03    0.25E-04    0.22E-06
 Optimization of the real space projectors (new method)

 maximal supplied QI-value         = 24.76
 optimisation between [QCUT,QGAM] = [ 11.39, 22.77] = [ 36.31,145.25] Ry 
 Optimized for a Real-space Cutoff    1.00 Angstroem

   l    n(q)    QCUT    max X(q) W(low)/X(q) W(high)/X(q)  e(spline) 
   0      7    11.387    20.381    0.39E-03    0.13E-02    0.15E-06
   0      7    11.387    15.268    0.42E-03    0.14E-02    0.17E-06
   1      6    11.387     5.964    0.41E-03    0.11E-02    0.17E-06
   1      6    11.387     5.382    0.39E-03    0.87E-03    0.15E-06
 Optimization of the real space projectors (new method)

 maximal supplied QI-value         = 19.84
 optimisation between [QCUT,QGAM] = [ 11.31, 22.82] = [ 35.82,145.81] Ry 
 Optimized for a Real-space Cutoff    1.16 Angstroem

   l    n(q)    QCUT    max X(q) W(low)/X(q) W(high)/X(q)  e(spline) 
   0      8    11.310   159.560    0.27E-03    0.30E-03    0.39E-07
   0      8    11.310   115.863    0.27E-03    0.30E-03    0.38E-07
   1      7    11.310    88.339    0.28E-03    0.28E-03    0.77E-07
   1      7    11.310    48.592    0.27E-03    0.27E-03    0.74E-07
 Optimization of the real space projectors (new method)

 maximal supplied QI-value         = 13.61
 optimisation between [QCUT,QGAM] = [ 11.43, 22.86] = [ 36.58,146.31] Ry 
 Optimized for a Real-space Cutoff    1.56 Angstroem

   l    n(q)    QCUT    max X(q) W(low)/X(q) W(high)/X(q)  e(spline) 
   2     10    11.429   130.855    0.22E-03    0.64E-03    0.11E-05
   2     10    11.429   114.007    0.22E-03    0.64E-03    0.11E-05
   0     11    11.429    84.709    0.39E-04    0.67E-04    0.23E-06
   0     11    11.429    49.163    0.35E-04    0.62E-04    0.21E-06
   1     10    11.429    15.765    0.84E-04    0.15E-03    0.24E-06
   1     10    11.429    10.638    0.58E-04    0.12E-03    0.19E-06

 ----------------------------------------------------------------------------- 
|                                                                             |
|  ADVICE TO THIS USER RUNNING 'VASP/VAMP'   (HEAR YOUR MASTER'S VOICE ...):  |
|                                                                             |
|      You enforced a specific xc-type in the INCAR file,                     |
|      a different type was found on the POTCAR file                          |
|          I HOPE YOU KNOW, WHAT YOU ARE  DOING                               |
|                                                                             |
 ----------------------------------------------------------------------------- 

  PAW_PBE C 08Apr2002                   :
 energy of atom  1       EATOM= -147.1560
 kinetic energy error for atom=    0.0076 (will be added to EATOM!!)
  PAW_PBE H 15Jun2001                   :
 energy of atom  2       EATOM=  -12.4884
 kinetic energy error for atom=    0.0020 (will be added to EATOM!!)
  PAW_PBE O 08Apr2002                   :
 energy of atom  3       EATOM= -432.3788
 kinetic energy error for atom=    0.0224 (will be added to EATOM!!)
  PAW_PBE Si 05Jan2001                  :
 energy of atom  4       EATOM= -103.0669
 kinetic energy error for atom=    0.0006 (will be added to EATOM!!)
  PAW_PBE W 08Apr2002                   :
 energy of atom  5       EATOM= -204.6103
 kinetic energy error for atom=    0.0017 (will be added to EATOM!!)


 POSCAR:  C  H  O Si  W                          
  positions in direct lattice
  velocities in cartesian coordinates
 exchange correlation table for  LEXCH =        9
   RHO(1)=    0.500       N(1)  =     2000
   RHO(2)=  100.500       N(2)  =     4000

 VTST: version 3.2, (02/03/18)

 CHAIN: initializing optimizer
 
 OPT: Using VASP QUASI-newton optimizer
 CHAIN: Read ICHAIN            0

 POSCAR:  C  H  O Si  W                          
  positions in direct lattice
  velocities in cartesian coordinates



--------------------------------------------------------------------------------------------------------


 ion  position               nearest neighbor table
   1  0.553  0.465  0.795-  49 1.10   2 1.36   3 1.50
   2  0.534  0.513  0.760-   1 1.36   4 1.53 276 2.12
   3  0.555  0.382  0.793-  52 1.10  51 1.10  53 1.11   1 1.50
   4  0.541  0.596  0.768-  56 1.10  55 1.10  54 1.10   2 1.53
   5  0.760  0.104  0.651- 131 0.97
   6  0.926  0.279  0.356-  79 0.98
   7  0.793  0.207  0.373- 114 0.97
   8  0.975  0.944  0.325- 123 0.97
   9  0.626  0.963  0.375- 125 0.98
  10  0.821  0.995  0.369- 143 0.97
  11  0.750  0.141  0.458- 181 0.98
  12  0.915  0.249  0.509- 186 0.97
  13  0.583  0.304  0.306- 191 0.97
  14  0.891  0.335  0.616-  97 0.98
  15  0.589  0.359  0.615- 142 0.97
  16  0.593  0.871  0.578- 184 0.99
  17  0.034  0.338  0.652- 190 0.97
  18  0.935  0.420  0.454- 179 0.98
  19  0.746  0.530  0.422-  93 1.00
  20  0.797  0.382  0.634- 171 0.97
  21  0.591  0.569  0.378- 105 0.99
  22  0.718  0.646  0.383- 128 0.99
  23  0.841  0.542  0.420- 134 0.98
  24  0.005  0.604  0.358- 139 0.97
  25  0.828  0.712  0.468- 180 0.99
  26  0.877  0.599  0.721-  59 0.97
  27  0.520  0.986  0.422- 141 0.99
  28  0.223  0.980  0.393- 182 1.00
  29  0.216  0.238  0.319- 197 0.99
  30  0.158  0.330  0.279- 188 0.97
  31  0.342  0.156  0.331- 189 0.98
  32  0.223  0.046  0.323- 196 0.97
  33  0.511  0.824  0.547- 199 0.97
  34  0.380  0.242  0.647-  84 0.97
  35  0.244  0.093  0.599- 135 0.98
  36  0.315  0.487  0.442-  58 0.99
  37  0.409  0.439  0.406- 147 0.98
  38  0.398  0.793  0.389- 185 0.97
  39  0.244  0.655  0.294- 193 0.97
  40  0.312  0.418  0.369- 194 0.98
  41  0.405  0.584  0.339- 195 0.97
  42  0.139  0.488  0.352- 187 0.98
  43  0.593  0.698  0.352-  88 0.97
  44  0.469  0.861  0.444- 198 0.99
  45  0.122  0.323  0.612- 107 0.97
  46  0.073  0.665  0.646- 138 0.97
  47  0.242  0.385  0.683- 183 0.97
  48  0.245  0.815  0.669- 192 0.97
  49  0.570  0.488  0.830-   1 1.10
  50  0.560  0.443  0.695- 276 1.70
  51  0.540  0.357  0.828-   3 1.10
  52  0.530  0.359  0.762-   3 1.10
  53  0.600  0.364  0.788-   3 1.11
  54  0.500  0.621  0.778-   4 1.10
  55  0.572  0.607  0.797-   4 1.10
  56  0.555  0.624  0.734-   4 1.10
  57  0.369  0.648  0.439- 230 1.66 265 1.68
  58  0.347  0.504  0.420-  36 0.99 265 1.67
  59  0.861  0.566  0.697-  26 0.97 236 1.64
  60  0.349  0.957  0.530- 241 1.68 274 1.69
  61  0.033  0.933  0.528- 256 1.63 267 1.66
  62  0.636  0.079  0.489- 234 1.60 223 1.65
  63  0.069  0.052  0.395- 222 1.64 214 1.65
  64  0.452  0.130  0.421- 239 1.65 220 1.65
  65  0.806  0.214  0.483- 238 1.67 235 1.69
  66  0.973  0.182  0.599- 216 1.63 246 1.65
  67  0.275  0.299  0.449- 262 1.65 272 1.66
  68  0.556  0.775  0.442- 243 1.51 270 1.66
  69  0.393  0.970  0.619- 260 1.65 274 1.66
  70  0.178  0.350  0.405- 262 1.66 237 1.67
  71  0.867  0.684  0.637- 240 1.64 236 1.65
  72  0.866  0.967  0.467- 232 1.60 247 1.65
  73  0.301  0.761  0.458- 230 1.65 244 1.67
  74  0.422  0.261  0.380- 239 1.67 259 1.67
  75  0.811  0.465  0.520- 266 1.63 213 1.64
  76  0.983  0.073  0.521- 256 1.68 216 1.69
  77  0.518  0.461  0.623- 275 1.65 276 1.98
  78  0.035  0.920  0.429- 267 1.64 214 1.65
  79  0.963  0.303  0.351-   6 0.98 215 1.65
  80  0.070  0.336  0.376- 215 1.64 237 1.65
  81  0.208  0.729  0.395- 244 1.66 254 1.67
  82  0.039  0.419  0.499- 269 1.64 242 1.65
  83  0.240  0.286  0.588- 250 1.63 227 1.63
  84  0.398  0.194  0.644-  34 0.97 221 1.64
  85  0.455  0.562  0.580- 252 1.67 275 1.68
  86  0.910  0.749  0.557- 240 1.64 219 1.65
  87  0.869  0.108  0.442- 247 1.64 235 1.65
  88  0.573  0.667  0.376-  43 0.97 243 1.68
  89  0.142  0.159  0.376- 268 1.65 222 1.65
  90  0.350  0.766  0.607- 212 1.62 253 1.64
  91  0.911  0.845  0.483- 232 1.62 219 1.66
  92  0.061  0.537  0.442- 269 1.66 211 1.67
  93  0.708  0.555  0.420-  19 1.00 225 1.67
  94  0.075  0.817  0.483- 267 1.50 249 1.65
  95  0.700  0.828  0.433- 224 1.53 257 1.65
  96  0.730  0.049  0.543- 223 1.64 258 1.64
  97  0.919  0.302  0.632-  14 0.98 246 1.63
  98  0.735  0.853  0.613- 231 1.66 228 1.68
  99  0.625  0.527  0.486- 233 1.58 225 1.68
 100  0.557  0.630  0.467- 243 1.52 233 1.62
 101  0.426  0.245  0.555- 221 1.68 264 1.68
 102  0.978  0.728  0.477- 249 1.65 219 1.65
 103  0.654  0.594  0.634- 271 1.64 217 1.66
 104  0.397  0.745  0.516- 212 1.66 230 1.67
 105  0.603  0.518  0.386-  21 0.99 225 1.65
 106  0.719  0.632  0.557- 255 1.63 271 1.64
 107  0.147  0.364  0.620-  45 0.97 227 1.64
 108  0.066  0.549  0.542- 269 1.63 273 1.64
 109  0.819  0.885  0.537- 232 1.65 231 1.67
 110  0.828  0.355  0.452- 238 1.65 213 1.65
 111  0.527  0.299  0.532- 264 1.62 245 1.63
 112  0.737  0.499  0.595- 271 1.65 266 1.66
 113  0.557  0.172  0.395- 251 1.59 220 1.64
 114  0.806  0.256  0.383-   7 0.97 238 1.67
 115  0.237  0.953  0.508- 241 1.58 226 1.67
 116  0.693  0.777  0.541- 255 1.63 228 1.64
 117  0.924  0.950  0.553- 256 1.65 232 1.66
 118  0.526  0.318  0.399- 251 1.45 259 1.66
 119  0.469  0.989  0.546- 260 1.69 261 1.70
 120  0.838  0.095  0.540- 235 1.66 258 1.66
 121  0.538  0.116  0.486- 234 1.61 220 1.67
 122  0.350  0.187  0.440- 272 1.63 239 1.65
 123  0.012  0.962  0.335-   8 0.97 214 1.65
 124  0.460  0.578  0.675- 252 1.67 276 1.96
 125  0.655  0.925  0.379-   9 0.98 224 1.66
 126  0.076  0.686  0.436- 211 1.65 249 1.66
 127  0.451  0.403  0.552- 275 1.67 264 1.70
 128  0.719  0.700  0.380-  22 0.99 257 1.65
 129  0.448  0.701  0.603- 212 1.64 252 1.64
 130  0.753  0.709  0.476- 255 1.63 257 1.69
 131  0.779  0.121  0.621-   5 0.97 258 1.64
 132  0.993  0.308  0.448- 242 1.66 215 1.68
 133  0.531  0.506  0.526- 275 1.64 233 1.65
 134  0.817  0.499  0.423-  23 0.98 213 1.69
 135  0.236  0.145  0.605-  35 0.98 250 1.62
 136  0.204  0.831  0.471- 226 1.50 244 1.63
 137  0.240  0.559  0.523- 229 1.65 218 1.66
 138  0.061  0.626  0.624-  46 0.97 273 1.63
 139  0.046  0.602  0.354-  24 0.97 211 1.65
 140  0.801  0.979  0.606- 231 1.66 258 1.69
 141  0.538  0.028  0.405-  27 0.99 220 1.66
 142  0.606  0.313  0.605-  15 0.97 245 1.64
 143  0.862  0.004  0.369-  10 0.97 247 1.66
 144  0.095  0.149  0.467- 248 1.62 222 1.65
 145  0.171  0.204  0.531- 248 1.61 250 1.63
 146  0.641  0.704  0.455- 243 1.65 257 1.66
 147  0.437  0.410  0.386-  37 0.98 259 1.66
 148  0.575  0.058  0.571- 261 1.62 234 1.65
 149  0.151  0.593  0.389- 254 1.68 211 1.68
 150  0.268  0.602  0.392- 265 1.65 254 1.67
 151  0.440  0.322  0.470- 264 1.64 259 1.69
 152  0.238  0.159  0.430- 268 1.65 272 1.67
 153  0.073  0.150  0.563- 248 1.64 216 1.64
 154  0.845  0.544  0.600- 236 1.66 266 1.66
 155  0.621  0.280  0.411- 263 1.65 251 1.66
 156  0.603  0.892  0.467- 270 1.29 224 1.67
 157  0.031  0.195  0.389- 215 1.66 222 1.66
 158  0.608  0.195  0.547- 234 1.62 245 1.64
 159  0.133  0.938  0.479- 267 1.65 226 1.66
 160  0.080  0.280  0.512- 242 1.64 248 1.65
 161  0.373  0.103  0.569- 274 1.63 221 1.69
 162  0.067  0.697  0.536- 249 1.63 273 1.63
 163  0.666  0.415  0.430- 225 1.65 263 1.65
 164  0.799  0.729  0.564- 255 1.61 240 1.63
 165  0.704  0.957  0.470- 223 1.65 224 1.66
 166  0.596  0.631  0.554- 233 1.63 217 1.63
 167  0.723  0.294  0.452- 238 1.63 263 1.64
 168  0.978  0.314  0.547- 242 1.64 246 1.67
 169  0.158  0.630  0.571- 229 1.63 273 1.65
 170  0.633  0.327  0.508- 245 1.63 263 1.65
 171  0.819  0.396  0.606-  20 0.97 266 1.65
 172  0.959  0.027  0.417- 247 1.64 214 1.65
 173  0.282  0.195  0.519- 272 1.63 250 1.65
 174  0.249  0.443  0.461- 218 1.66 262 1.71
 175  0.271  0.849  0.569- 241 1.64 253 1.65
 176  0.204  0.686  0.487- 229 1.63 244 1.66
 177  0.147  0.476  0.493- 218 1.63 269 1.65
 178  0.224  0.423  0.557- 218 1.61 227 1.64
 179  0.911  0.453  0.474-  18 0.98 213 1.65
 180  0.870  0.705  0.464-  25 0.99 219 1.65
 181  0.738  0.093  0.445-  11 0.98 223 1.66
 182  0.222  0.930  0.408-  28 1.00 226 1.64
 183  0.252  0.402  0.649-  47 0.97 227 1.65
 184  0.630  0.883  0.594-  16 0.99 228 1.62
 185  0.410  0.789  0.423-  38 0.97 230 1.68
 186  0.918  0.196  0.508-  12 0.97 235 1.65
 187  0.133  0.444  0.332-  42 0.98 237 1.65
 188  0.155  0.304  0.311-  30 0.97 237 1.69
 189  0.373  0.131  0.348-  31 0.98 239 1.66
 190  0.035  0.292  0.633-  17 0.97 246 1.66
 191  0.573  0.257  0.320-  13 0.97 251 1.66
 192  0.245  0.769  0.650-  48 0.97 253 1.64
 193  0.207  0.648  0.310-  39 0.97 254 1.65
 194  0.275  0.392  0.367-  40 0.98 262 1.66
 195  0.365  0.598  0.342-  41 0.97 265 1.67
 196  0.226  0.056  0.358-  32 0.97 268 1.69
 197  0.241  0.196  0.329-  29 0.99 268 1.66
 198  0.501  0.892  0.455-  44 0.99 270 1.60
 199  0.550  0.828  0.534-  33 0.97 270 1.67
 200  0.545  0.647  0.636- 217 1.65 252 1.67
 201  0.479  0.120  0.596- 261 1.65 221 1.66
 202  0.263  0.694  0.568- 253 1.65 229 1.65
 203  0.444  0.845  0.582- 260 1.66 212 1.69
 204  0.766  0.617  0.649- 271 1.65 236 1.66
 205  0.845  0.832  0.623- 240 1.66 231 1.68
 206  0.639  0.739  0.620- 217 1.67 228 1.71
 207  0.008  0.033  0.603- 256 1.69 216 1.69
 208  0.285  0.001  0.594- 274 1.69 241 1.70
 209  0.504  0.970  0.628- 260 1.69 261 1.70
 210  0.450  0.412  0.710- 276 1.71
 211  0.083  0.606  0.406- 139 1.65 126 1.65  92 1.67 149 1.68 269 3.13
 212  0.409  0.763  0.575-  90 1.62 129 1.64 104 1.66 203 1.69 253 3.06
 213  0.842  0.441  0.468-  75 1.64 110 1.65 179 1.65 134 1.69
 214  0.017  0.990  0.394-  63 1.65 172 1.65  78 1.65 123 1.65 267 3.11 222 3.13
 215  0.015  0.284  0.391-  80 1.64  79 1.65 157 1.66 132 1.68 242 3.11 222 3.11
 216  0.009  0.115  0.573-  66 1.63 153 1.64  76 1.69 207 1.69 256 2.39 248 3.05 246 3.07
 217  0.609  0.657  0.611- 166 1.63 200 1.65 103 1.66 206 1.67 271 2.87
 218  0.214  0.476  0.510- 178 1.61 177 1.63 137 1.66 174 1.66 229 3.10 262 3.14
 219  0.915  0.756  0.496- 102 1.65 180 1.65  86 1.65  91 1.66 232 2.99 240 3.03
 220  0.521  0.110  0.426- 113 1.64  64 1.65 141 1.66 121 1.67 251 3.08 234 3.12
 221  0.419  0.168  0.589-  84 1.64 201 1.66 101 1.68 161 1.69 274 3.14 261 3.14
 222  0.083  0.139  0.407-  63 1.64 144 1.65  89 1.65 157 1.66 215 3.11 214 3.13 268 3.14
 223  0.702  0.045  0.487-  96 1.64 165 1.65  62 1.65 181 1.66 234 3.09 224 3.10 258 3.15
 224  0.665  0.898  0.437-  95 1.53 165 1.66 125 1.66 156 1.67 270 2.83 257 3.06 223 3.10
 225  0.650  0.504  0.430- 105 1.65 163 1.65  93 1.67  99 1.68 233 3.06
 226  0.198  0.912  0.464- 136 1.50 182 1.64 159 1.66 115 1.67 244 3.01 241 3.06 267 3.07
 227  0.214  0.366  0.604-  83 1.63 178 1.64 107 1.64 183 1.65
 228  0.673  0.813  0.594- 184 1.62 116 1.64  98 1.68 206 1.71 255 2.90
 229  0.217  0.641  0.538- 169 1.63 176 1.63 202 1.65 137 1.65 244 3.09 218 3.10 273 3.12
 230  0.369  0.735  0.459-  73 1.65  57 1.66 104 1.67 185 1.68
 231  0.797  0.888  0.596- 140 1.66  98 1.66 109 1.67 205 1.68 240 2.86 232 3.00
 232  0.880  0.912  0.512-  72 1.60  91 1.62 109 1.65 117 1.66 219 2.99 231 3.00 256 3.05 247 3.13

 233  0.575  0.573  0.511-  99 1.58 100 1.62 166 1.63 133 1.65 243 3.01 225 3.06 275 3.11
 234  0.590  0.115  0.525-  62 1.60 121 1.61 158 1.62 148 1.65 261 2.85 223 3.09 245 3.12 220 3.12

 235  0.858  0.152  0.495- 186 1.65  87 1.65 120 1.66  65 1.69 247 3.07 238 3.15
 236  0.835  0.604  0.646-  59 1.64  71 1.65 154 1.66 204 1.66 271 2.93 240 3.01 266 3.01
 237  0.134  0.360  0.357- 187 1.65  80 1.65  70 1.67 188 1.69 262 3.11
 238  0.791  0.280  0.442- 167 1.63 110 1.65 114 1.67  65 1.67 235 3.15
 239  0.399  0.177  0.396-  64 1.65 122 1.65 189 1.66  74 1.67 259 3.07
 240  0.856  0.750  0.597- 164 1.63  86 1.64  71 1.64 205 1.66 231 2.86 236 3.01 219 3.03
 241  0.283  0.934  0.550- 115 1.58 175 1.64  60 1.68 208 1.70 274 2.38 226 3.06
 242  0.023  0.330  0.502- 160 1.64 168 1.64  82 1.65 132 1.66 246 3.11 215 3.11 248 3.13
 243  0.575  0.695  0.436-  68 1.51 100 1.52 146 1.65  88 1.68 233 3.01 270 3.06 257 3.10
 244  0.230  0.753  0.452- 136 1.63 176 1.66  81 1.66  73 1.67 254 2.97 226 3.01 229 3.09
 245  0.594  0.284  0.548- 170 1.63 111 1.63 142 1.64 158 1.64 234 3.12
 246  0.975  0.272  0.603-  97 1.63  66 1.65 190 1.66 168 1.67 216 3.07 242 3.11
 247  0.889  0.025  0.424-  87 1.64 172 1.64  72 1.65 143 1.66 235 3.07 232 3.13
 248  0.105  0.195  0.518- 145 1.61 144 1.62 153 1.64 160 1.65 216 3.05 242 3.13
 249  0.048  0.733  0.483- 162 1.63 102 1.65  94 1.65 126 1.66 267 3.05 273 3.15
 250  0.232  0.206  0.561- 135 1.62  83 1.63 145 1.63 173 1.65 272 3.03
 251  0.561  0.258  0.381- 118 1.45 113 1.59 155 1.66 191 1.66 259 2.87 220 3.08
 252  0.477  0.624  0.623- 129 1.64  85 1.67 200 1.67 124 1.67 275 2.98 276 3.19
 253  0.281  0.770  0.598- 192 1.64  90 1.64 202 1.65 175 1.65 212 3.06
 254  0.209  0.643  0.372- 193 1.65 150 1.67  81 1.67 149 1.68 244 2.97
 255  0.740  0.711  0.536- 164 1.61 106 1.63 130 1.63 116 1.63 228 2.90 257 2.90 271 3.07
 256  0.987  0.991  0.550-  61 1.63 117 1.65  76 1.68 207 1.69 216 2.39 232 3.05
 257  0.703  0.737  0.434-  95 1.65 128 1.65 146 1.66 130 1.69 255 2.90 224 3.06 243 3.10
 258  0.788  0.059  0.577-  96 1.64 131 1.64 120 1.66 140 1.69 223 3.15
 259  0.456  0.328  0.409- 147 1.66 118 1.66  74 1.67 151 1.69 251 2.87 239 3.07
 260  0.451  0.934  0.594-  69 1.65 203 1.66 119 1.69 209 1.69 261 2.37 274 2.75
 261  0.509  0.039  0.586- 148 1.62 201 1.65 119 1.70 209 1.70 260 2.37 234 2.85 221 3.14
 262  0.244  0.370  0.421-  67 1.65  70 1.66 194 1.66 174 1.71 237 3.11 218 3.14
 263  0.659  0.330  0.450- 167 1.64 155 1.65 163 1.65 170 1.65
 264  0.460  0.317  0.529- 111 1.62 151 1.64 101 1.68 127 1.70
 265  0.337  0.590  0.399- 150 1.65 195 1.67  58 1.67  57 1.68
 266  0.803  0.476  0.580-  75 1.63 171 1.65 154 1.66 112 1.66 271 2.91 236 3.01
 267  0.069  0.899  0.481-  94 1.50  78 1.64 159 1.65  61 1.66 249 3.05 226 3.07 214 3.11
 268  0.212  0.144  0.374-  89 1.65 152 1.65 197 1.66 196 1.69 272 3.12 222 3.14
 269  0.078  0.494  0.495- 108 1.63  82 1.64 177 1.65  92 1.66 273 3.10 211 3.13
 270  0.558  0.852  0.475- 156 1.29 198 1.60  68 1.66 199 1.67 224 2.83 243 3.06
 271  0.718  0.585  0.610- 103 1.64 106 1.64 204 1.65 112 1.65 217 2.87 266 2.91 236 2.93 255 3.07

 272  0.287  0.210  0.459- 173 1.63 122 1.63  67 1.66 152 1.67 250 3.03 268 3.12
 273  0.088  0.626  0.568- 162 1.63 138 1.63 108 1.64 169 1.65 269 3.10 229 3.12 249 3.15
 274  0.354  0.017  0.578- 161 1.63  69 1.66  60 1.69 208 1.69 241 2.38 260 2.75 221 3.14
 275  0.486  0.480  0.570- 133 1.64  77 1.65 127 1.67  85 1.68 252 2.98 233 3.11 276 3.30
 276  0.494  0.483  0.692-  50 1.70 210 1.71 124 1.96  77 1.98   2 2.12 252 3.19 275 3.30

  LATTYP: Found a simple orthorhombic cell.
 ALAT       =    18.1212369514
 B/A-ratio  =     1.2919258579
 C/A-ratio  =     1.4835282260
  
  Lattice vectors:
  
 A1 = (   0.0000000000, -18.1212369514,   0.0000000000)
 A2 = ( -23.4112945954,   0.0000000000,   0.0000000000)
 A3 = (   0.0000000000,   0.0000000000, -26.8833665073)


Analysis of symmetry for initial positions (statically):
=====================================================================
 Subroutine PRICEL returns:
 Original cell was already a primitive cell.
 

 Routine SETGRP: Setting up the symmetry group for a 
 simple orthorhombic supercell.


 Subroutine GETGRP returns: Found  1 space group operations
 (whereof  1 operations were pure point group operations)
 out of a pool of  8 trial point group operations.


The static configuration has the point symmetry C_1 .


Analysis of symmetry for dynamics (positions and initial velocities):
=====================================================================
 Subroutine PRICEL returns:
 Original cell was already a primitive cell.
 

 Routine SETGRP: Setting up the symmetry group for a 
 simple orthorhombic supercell.


 Subroutine GETGRP returns: Found  1 space group operations
 (whereof  1 operations were pure point group operations)
 out of a pool of  8 trial point group operations.


The dynamic configuration has the point symmetry C_1 .


Analysis of constrained symmetry for selective dynamics:
=====================================================================
 Subroutine PRICEL returns:
 Original cell was already a primitive cell.
 

 Routine SETGRP: Setting up the symmetry group for a 
 simple orthorhombic supercell.


 Subroutine GETGRP returns: Found  1 space group operations
 (whereof  1 operations were pure point group operations)
 out of a pool of  8 trial point group operations.


The constrained configuration has the point symmetry C_1 .


 Subroutine INISYM returns: Found  1 space group operations
 (whereof  1 operations are pure point group operations),
 and found     1 'primitive' translations



 KPOINTS: KPOINTS created by Atomic Simulation Env

Automatic generation of k-mesh.
Space group operators:
 irot       det(A)        alpha          n_x          n_y          n_z        tau_x        tau_y        tau_z
    1     1.000000     0.000000     1.000000     0.000000     0.000000     0.000000     0.000000     0.000000
 
 Subroutine IBZKPT returns following result:
 ===========================================
 
 Found      5 irreducible k-points:
 
 Following reciprocal coordinates:
            Coordinates               Weight
  0.000000  0.000000  0.000000      1.000000
  0.333333  0.000000  0.000000      2.000000
  0.000000  0.333333  0.000000      2.000000
  0.333333  0.333333  0.000000      2.000000
 -0.333333  0.333333  0.000000      2.000000
 
 Following cartesian coordinates:
            Coordinates               Weight
  0.000000  0.000000  0.000000      1.000000
  0.014238  0.000000  0.000000      2.000000
  0.000000  0.018395  0.000000      2.000000
  0.014238  0.018395  0.000000      2.000000
 -0.014238  0.018395  0.000000      2.000000
 


--------------------------------------------------------------------------------------------------------




 Dimension of arrays:
   k-points           NKPTS =      5   k-points in BZ     NKDIM =      5   number of bands    NBANDS=    768
   number of dos      NEDOS =    301   number of ions     NIONS =    276
   non local maximal  LDIM  =      6   non local SUM 2l+1 LMDIM =     18
   total plane-waves  NPLWV = ******
   max r-space proj   IRMAX =   2748   max aug-charges    IRDMAX=   9808
   dimension x,y,z NGX =   128 NGY =  100 NGZ =  150
   dimension x,y,z NGXF=   256 NGYF=  200 NGZF=  300
   support grid    NGXF=   256 NGYF=  200 NGZF=  300
   ions per type =               4  52 154  65   1
   NGX,Y,Z   is equivalent  to a cutoff of   9.09,  9.17,  9.28 a.u.
   NGXF,Y,Z  is equivalent  to a cutoff of  18.18, 18.35, 18.55 a.u.

 SYSTEM =  unknown system                          
 POSCAR =   C  H  O Si  W                          

 Startparameter for this run:
   NWRITE =      2    write-flag & timer
   PREC   = normal    normal or accurate (medium, high low for compatibility)
   ISTART =      0    job   : 0-new  1-cont  2-samecut
   ICHARG =      2    charge: 1-file 2-atom 10-const
   ISPIN  =      1    spin polarized calculation?
   LNONCOLLINEAR =      F non collinear calculations
   LSORBIT =      F    spin-orbit coupling
   INIWAV =      1    electr: 0-lowe 1-rand  2-diag
   LASPH  =      T    aspherical Exc in radial PAW
   METAGGA=      F    non-selfconsistent MetaGGA calc.

 Electronic Relaxation 1
   ENCUT  =  500.0 eV  36.75 Ry    6.06 a.u.  42.68 33.04 49.01*2*pi/ulx,y,z
   ENINI  =  500.0     initial cutoff
   ENAUG  =  644.9 eV  augmentation charge cutoff
   NELM   =     60;   NELMIN=  2; NELMDL=  0     # of ELM steps 
   EDIFF  = 0.1E-03   stopping-criterion for ELM
   LREAL  =      T    real-space projection
   NLSPLINE    = F    spline interpolate recip. space projectors
   LCOMPAT=      F    compatible to vasp.4.4
   GGA_COMPAT  = T    GGA compatible to vasp.4.4-vasp.4.6
   LMAXPAW     = -100 max onsite density
   LMAXMIX     =    2 max onsite mixed and CHGCAR
   VOSKOWN=      0    Vosko Wilk Nusair interpolation
   ROPT   =   -0.00050  -0.00050  -0.00050  -0.00050
   ROPT   =   -0.00050
 Ionic relaxation
   EDIFFG = -.5E-01   stopping-criterion for IOM
   NSW    =    150    number of steps for IOM
   NBLOCK =      1;   KBLOCK =    150    inner block; outer block 
   IBRION =      1    ionic relax: 0-MD 1-quasi-New 2-CG
   NFREE  =      0    steps in history (QN), initial steepest desc. (CG)
   ISIF   =      0    stress and relaxation
   IWAVPR =     11    prediction:  0-non 1-charg 2-wave 3-comb
   ISYM   =      2    0-nonsym 1-usesym 2-fastsym
   LCORR  =      T    Harris-Foulkes like correction to forces

   POTIM  = 0.5000    time-step for ionic-motion
   TEIN   =    0.0    initial temperature
   TEBEG  =    0.0;   TEEND  =   0.0 temperature during run
   SMASS  =  -3.00    Nose mass-parameter (am)
   estimated Nose-frequenzy (Omega)   =  0.10E-29 period in steps =****** mass=  -0.125E-25a.u.
   SCALEE = 1.0000    scale energy and forces
   NPACO  =    256;   APACO  = 16.0  distance and # of slots for P.C.
   PSTRESS=    0.0 pullay stress

  Mass of Ions in am
   POMASS =  12.01  1.00 16.00 28.09183.85
  Ionic Valenz
   ZVAL   =   4.00  1.00  6.00  4.00  6.00
  Atomic Wigner-Seitz radii
   RWIGS  =  -1.00 -1.00 -1.00 -1.00 -1.00
  virtual crystal weights 
   VCA    =   1.00  1.00  1.00  1.00  1.00
   NELECT =    1258.0000    total number of electrons
   NUPDOWN=      -1.0000    fix difference up-down

 DOS related values:
   EMIN   =  10.00;   EMAX   =-10.00  energy-range for DOS
   EFERMI =   0.00
   ISMEAR =     0;   SIGMA  =   0.20  broadening in eV -4-tet -1-fermi 0-gaus

 Electronic relaxation 2 (details)
   IALGO  =     68    algorithm
   LDIAG  =      T    sub-space diagonalisation (order eigenvalues)
   LSUBROT=      F    optimize rotation matrix (better conditioning)
   TURBO    =      0    0=normal 1=particle mesh
   IRESTART =      0    0=no restart 2=restart with 2 vectors
   NREBOOT  =      0    no. of reboots
   NMIN     =      0    reboot dimension
   EREF     =   0.00    reference energy to select bands
   IMIX   =      4    mixing-type and parameters
     AMIX     =   0.40;   BMIX     =  1.00
     AMIX_MAG =   1.60;   BMIX_MAG =  1.00
     AMIN     =   0.10
     WC   =   100.;   INIMIX=   1;  MIXPRE=   1;  MAXMIX= -45

 Intra band minimization:
   WEIMIN = 0.0010     energy-eigenvalue tresh-hold
   EBREAK =  0.33E-07  absolut break condition
   DEPER  =   0.30     relativ break condition  

   TIME   =   0.40     timestep for ELM

  volume/ion in A,a.u.               =      41.32       278.86
  Fermi-wavevector in a.u.,A,eV,Ry     =   0.785120  1.483662  8.386815  0.616413
  Thomas-Fermi vector in A             =   1.889391

 Write flags
   LWAVE        =      F    write WAVECAR
   LDOWNSAMPLE  =      F    k-point downsampling of WAVECAR
   LCHARG       =      F    write CHGCAR
   LVTOT        =      F    write LOCPOT, total local potential
   LVHAR        =      F    write LOCPOT, Hartree potential only
   LELF         =      F    write electronic localiz. function (ELF)
   LORBIT       =      0    0 simple, 1 ext, 2 COOP (PROOUT), +10 PAW based schemes


 Dipole corrections
   LMONO  =      F    monopole corrections only (constant potential shift)
   LDIPOL =      T    correct potential (dipole corrections)
   IDIPOL =      3    1-x, 2-y, 3-z, 4-all directions 
   EPSILON=  1.0000000 bulk dielectric constant

 Exchange correlation treatment:
   GGA     =    RP    GGA type
   LEXCH   =     9    internal setting for exchange type
   VOSKOWN=      0    Vosko Wilk Nusair interpolation
   LHFCALC =     F    Hartree Fock is set to
   LHFONE  =     F    Hartree Fock one center treatment
   AEXX    =    0.0000 exact exchange contribution

 Linear response parameters
   LEPSILON=     F    determine dielectric tensor
   LRPA    =     F    only Hartree local field effects (RPA)
   LNABLA  =     F    use nabla operator in PAW spheres
   LVEL    =     F    velocity operator in full k-point grid
   LINTERFAST=   F  fast interpolation
   KINTER  =     0    interpolate to denser k-point grid
   CSHIFT  =0.1000    complex shift for real part using Kramers Kronig
   OMEGAMAX=  -1.0    maximum frequency
   DEG_THRESHOLD= 0.2000000E-02 threshold for treating states as degnerate
   RTIME   =   -0.100 relaxation time in fs
  (WPLASMAI=    0.000 imaginary part of plasma frequency in eV, 0.658/RTIME)
   DFIELD  = 0.0000000 0.0000000 0.0000000 field for delta impulse in time

 Orbital magnetization related:
   ORBITALMAG=     F  switch on orbital magnetization
   LCHIMAG   =     F  perturbation theory with respect to B field
   DQ        =  0.001000  dq finite difference perturbation B field
   LLRAUG    =     F  two centre corrections for induced B field



--------------------------------------------------------------------------------------------------------


 quasi-Newton-method for relaxation of ions
   using selective dynamics as specified on POSCAR
 charge density and potential will be updated during run
 non-spin polarized calculation
 RMM-DIIS sequential band-by-band and
  variant of blocked Davidson during initial phase
 perform sub-space diagonalisation
    before iterative eigenvector-optimisation
 modified Broyden-mixing scheme, WC =      100.0
 initial mixing is a Kerker type mixing with AMIX =  0.4000 and BMIX =      1.0000
 Hartree-type preconditioning will be used
 using additional bands          139
 real space projection scheme for non local part
 use partial core corrections
 calculate Harris-corrections to forces   (improved forces if not selfconsistent)
 use gradient corrections 
 use of overlap-Matrix (Vanderbilt PP)
 Gauss-broadening in eV      SIGMA  =   0.20


--------------------------------------------------------------------------------------------------------


  energy-cutoff  :      500.00
  volume of cell :    11405.04
      direct lattice vectors                 reciprocal lattice vectors
    23.411294595  0.000000000  0.000000000     0.042714426  0.000000000  0.000000000
     0.000000000 18.121236951  0.000000000     0.000000000  0.055183871  0.000000000
     0.000000000  0.000000000 26.883366507     0.000000000  0.000000000  0.037197722

  length of vectors
    23.411294595 18.121236951 26.883366507     0.042714426  0.055183871  0.037197722



 k-points in units of 2pi/SCALE and weight: KPOINTS created by Atomic Simulation Env
   0.00000000  0.00000000  0.00000000       0.111
   0.01423814  0.00000000  0.00000000       0.222
   0.00000000  0.01839462  0.00000000       0.222
   0.01423814  0.01839462  0.00000000       0.222
  -0.01423814  0.01839462  0.00000000       0.222

 k-points in reciprocal lattice and weights: KPOINTS created by Atomic Simulation Env
   0.00000000  0.00000000  0.00000000       0.111
   0.33333333  0.00000000  0.00000000       0.222
   0.00000000  0.33333333  0.00000000       0.222
   0.33333333  0.33333333  0.00000000       0.222
  -0.33333333  0.33333333  0.00000000       0.222

 position of ions in fractional coordinates (direct lattice) 
   0.55261660  0.46454856  0.79527526
   0.53382451  0.51253625  0.76005755
   0.55503878  0.38173580  0.79271368
   0.54065745  0.59592794  0.76781636
   0.76048416  0.10370345  0.65095014
   0.92642768  0.27866896  0.35633493
   0.79333970  0.20727890  0.37345652
   0.97453911  0.94360860  0.32530279
   0.62573266  0.96347285  0.37523120
   0.82053840  0.99500666  0.36899263
   0.74999307  0.14117876  0.45803819
   0.91543543  0.24946572  0.50902433
   0.58349286  0.30426355  0.30592717
   0.89131693  0.33465183  0.61607457
   0.58889714  0.35937612  0.61503656
   0.59326703  0.87118765  0.57820010
   0.03398214  0.33802654  0.65186485
   0.93527051  0.41951423  0.45410146
   0.74613838  0.53031199  0.42248819
   0.79701200  0.38180177  0.63429224
   0.59110202  0.56868283  0.37803474
   0.71843379  0.64593279  0.38346059
   0.84115291  0.54242660  0.41959617
   0.00476455  0.60379815  0.35777830
   0.82835870  0.71235667  0.46794226
   0.87718482  0.59882528  0.72127053
   0.51999031  0.98556476  0.42170307
   0.22309457  0.98015484  0.39320502
   0.21637369  0.23785146  0.31923033
   0.15750105  0.32980623  0.27898292
   0.34154688  0.15558571  0.33077276
   0.22271586  0.04575893  0.32273843
   0.51143289  0.82413886  0.54659320
   0.38022548  0.24227105  0.64741248
   0.24440409  0.09296053  0.59859851
   0.31538097  0.48713646  0.44243467
   0.40895618  0.43873486  0.40569060
   0.39849950  0.79311361  0.38878680
   0.24420236  0.65543008  0.29432688
   0.31174138  0.41847571  0.36925764
   0.40547429  0.58427965  0.33881989
   0.13935762  0.48797365  0.35192946
   0.59326935  0.69798713  0.35239799
   0.46900683  0.86142747  0.44382838
   0.12181928  0.32283579  0.61167378
   0.07271243  0.66518836  0.64567054
   0.24232060  0.38463081  0.68251946
   0.24466519  0.81459603  0.66902913
   0.56984730  0.48840288  0.82980911
   0.55993588  0.44324385  0.69487060
   0.54038499  0.35706616  0.82795269
   0.52983347  0.35874833  0.76208256
   0.59986813  0.36385788  0.78768298
   0.49950946  0.62112466  0.77825240
   0.57203605  0.60689316  0.79745527
   0.55501830  0.62421051  0.73384988
   0.36894173  0.64835510  0.43900002
   0.34681565  0.50403387  0.42038813
   0.86069029  0.56605865  0.69670995
   0.34886613  0.95733178  0.53034058
   0.03341914  0.93262087  0.52848237
   0.63635548  0.07886855  0.48937667
   0.06864615  0.05226542  0.39511073
   0.45189954  0.12956232  0.42059728
   0.80588415  0.21365018  0.48316661
   0.97305816  0.18152917  0.59886134
   0.27476529  0.29917287  0.44851223
   0.55635417  0.77509129  0.44175101
   0.39262726  0.97004383  0.61925449
   0.17751724  0.34996845  0.40527312
   0.86662179  0.68396925  0.63725329
   0.86569601  0.96717693  0.46703846
   0.30104714  0.76093683  0.45792526
   0.42161095  0.26125222  0.37959630
   0.81108074  0.46545592  0.52008830
   0.98349035  0.07279051  0.52123850
   0.51752962  0.46130131  0.62302304
   0.03453641  0.91994776  0.42940526
   0.96303654  0.30319531  0.35125762
   0.06962669  0.33610577  0.37637178
   0.20829566  0.72864429  0.39536010
   0.03890126  0.41910192  0.49910875
   0.23952118  0.28571592  0.58785308
   0.39764591  0.19392278  0.64449677
   0.45544825  0.56228663  0.58023435
   0.90973726  0.74917247  0.55748863
   0.86912727  0.10804334  0.44227833
   0.57257679  0.66733185  0.37613173
   0.14242656  0.15912550  0.37597224
   0.35008471  0.76614335  0.60672801
   0.91099605  0.84504757  0.48317962
   0.06133801  0.53687171  0.44225348
   0.70833903  0.55516655  0.41995768
   0.07548726  0.81680680  0.48299416
   0.70046477  0.82755572  0.43263529
   0.73014824  0.04899197  0.54300112
   0.91891528  0.30206633  0.63209623
   0.73478114  0.85266457  0.61295170
   0.62512195  0.52739400  0.48637871
   0.55657330  0.62970304  0.46724942
   0.42621516  0.24515477  0.55505973
   0.97829009  0.72824363  0.47679564
   0.65402419  0.59432847  0.63363458
   0.39715686  0.74473826  0.51570920
   0.60269007  0.51766545  0.38567099
   0.71914720  0.63150515  0.55714689
   0.14676258  0.36398163  0.61990183
   0.06635938  0.54857138  0.54196125
   0.81884150  0.88458742  0.53664951
   0.82821553  0.35538514  0.45190334
   0.52746160  0.29870054  0.53248673
   0.73669764  0.49939932  0.59532390
   0.55743394  0.17243111  0.39490854
   0.80596408  0.25641257  0.38329286
   0.23744622  0.95325075  0.50791956
   0.69283847  0.77650982  0.54128966
   0.92382031  0.94976875  0.55298167
   0.52573722  0.31778112  0.39855594
   0.46890165  0.98874786  0.54599136
   0.83770890  0.09479446  0.53979371
   0.53790325  0.11641749  0.48623709
   0.35019344  0.18660873  0.43963639
   0.01176032  0.96241390  0.33524376
   0.46028562  0.57838574  0.67481646
   0.65496522  0.92539750  0.37922825
   0.07629334  0.68602626  0.43588102
   0.45111178  0.40349242  0.55246818
   0.71921944  0.70042085  0.37958300
   0.44836133  0.70109828  0.60336109
   0.75255106  0.70932458  0.47629548
   0.77857373  0.12109063  0.62072128
   0.99327462  0.30801347  0.44840298
   0.53062265  0.50627897  0.52609211
   0.81677759  0.49906173  0.42344221
   0.23580460  0.14478316  0.60530939
   0.20353331  0.83070132  0.47053363
   0.23998236  0.55859964  0.52278778
   0.06123195  0.62551240  0.62369080
   0.04607407  0.60234669  0.35417863
   0.80058935  0.97858703  0.60574772
   0.53799091  0.02769749  0.40450275
   0.60624561  0.31285608  0.60513211
   0.86154611  0.00408085  0.36920633
   0.09491131  0.14902284  0.46708233
   0.17145039  0.20398893  0.53090508
   0.64098865  0.70443872  0.45481558
   0.43678778  0.40976848  0.38641325
   0.57470803  0.05790165  0.57100152
   0.15143775  0.59340802  0.38895836
   0.26773979  0.60233753  0.39230630
   0.44025846  0.32219818  0.47032443
   0.23800967  0.15851113  0.42990119
   0.07270553  0.15037086  0.56256195
   0.84497207  0.54400177  0.59978121
   0.62117943  0.27993988  0.41090545
   0.60266699  0.89152667  0.46722346
   0.03138539  0.19528983  0.38899188
   0.60762141  0.19544637  0.54749546
   0.13279973  0.93835464  0.47948708
   0.08029211  0.28042562  0.51157095
   0.37289336  0.10290701  0.56907936
   0.06669531  0.69702208  0.53571133
   0.66648838  0.41538488  0.43001156
   0.79932059  0.72944891  0.56412593
   0.70383856  0.95720843  0.47018456
   0.59563265  0.63069834  0.55401282
   0.72284030  0.29368465  0.45166811
   0.97756287  0.31413084  0.54724730
   0.15842137  0.62994980  0.57058212
   0.63333384  0.32678308  0.50780070
   0.81938567  0.39633564  0.60553016
   0.95857820  0.02724304  0.41695300
   0.28213743  0.19503461  0.51866409
   0.24925755  0.44303289  0.46105570
   0.27139621  0.84938228  0.56865256
   0.20366815  0.68557317  0.48688872
   0.14712345  0.47606988  0.49254493
   0.22448858  0.42266649  0.55686458
   0.91141698  0.45274460  0.47371881
   0.86978818  0.70456011  0.46415352
   0.73812021  0.09283462  0.44522965
   0.22218344  0.92978119  0.40794682
   0.25194213  0.40190741  0.64946914
   0.63038319  0.88332933  0.59350628
   0.41022327  0.78906239  0.42343739
   0.91777135  0.19603829  0.50824515
   0.13254706  0.44353611  0.33227266
   0.15514768  0.30352326  0.31056042
   0.37300515  0.13090704  0.34795342
   0.03453059  0.29189643  0.63349847
   0.57268926  0.25686819  0.32009968
   0.24471062  0.76938103  0.64976467
   0.20737430  0.64840505  0.31036906
   0.27537441  0.39219130  0.36737583
   0.36535081  0.59758663  0.34222079
   0.22638085  0.05618082  0.35811888
   0.24120334  0.19607823  0.32934297
   0.50127293  0.89230162  0.45484168
   0.55039649  0.82764801  0.53432349
   0.54474450  0.64705310  0.63575868
   0.47876060  0.12030112  0.59622909
   0.26283444  0.69376917  0.56849426
   0.44381439  0.84453894  0.58158071
   0.76553517  0.61680188  0.64939537
   0.84461263  0.83156797  0.62301644
   0.63898740  0.73922156  0.62015166
   0.00813731  0.03345434  0.60297792
   0.28506917  0.00085251  0.59392832
   0.50426439  0.96996917  0.62821084
   0.45001485  0.41204382  0.71023545
   0.08322528  0.60642030  0.40641308
   0.40916209  0.76327166  0.57539463
   0.84176382  0.44145312  0.46783897
   0.01708949  0.99048204  0.39361135
   0.01470021  0.28419027  0.39108141
   0.00918828  0.11508665  0.57250890
   0.60885543  0.65682370  0.61099069
   0.21397263  0.47577281  0.50973771
   0.91506213  0.75556094  0.49625454
   0.52057854  0.11045563  0.42598659
   0.41899418  0.16796919  0.58913856
   0.08345253  0.13917208  0.40698087
   0.70189793  0.04484625  0.48732303
   0.66505935  0.89803746  0.43747644
   0.65009874  0.50402706  0.43015089
   0.19846065  0.91248223  0.46399069
   0.21432449  0.36641256  0.60358982
   0.67329005  0.81341711  0.59444808
   0.21676660  0.64144575  0.53845655
   0.36878912  0.73512773  0.45920930
   0.79721523  0.88832365  0.59564452
   0.87976128  0.91225958  0.51199692
   0.57513611  0.57314330  0.51116149
   0.58987605  0.11541959  0.52524828
   0.85812234  0.15211323  0.49517595
   0.83546471  0.60354848  0.64582272
   0.13373852  0.36031890  0.35687228
   0.79065529  0.27993925  0.44187265
   0.39917610  0.17749484  0.39600320
   0.85596275  0.75000679  0.59652878
   0.28291277  0.93404101  0.54955968
   0.02307473  0.33044751  0.50224551
   0.57455938  0.69549008  0.43556436
   0.23024095  0.75260050  0.45196954
   0.59376283  0.28409950  0.54838024
   0.97514803  0.27231199  0.60266249
   0.88890636  0.02540900  0.42420019
   0.10471725  0.19548652  0.51774662
   0.04814566  0.73303709  0.48263019
   0.23200551  0.20557770  0.56106040
   0.56140781  0.25778527  0.38122611
   0.47732462  0.62361165  0.62259411
   0.28095879  0.77014514  0.59764856
   0.20850083  0.64339984  0.37179454
   0.74032573  0.71085804  0.53581563
   0.98652416  0.99065670  0.55034529
   0.70310456  0.73681815  0.43426040
   0.78788186  0.05939604  0.57675763
   0.45631390  0.32845159  0.40928789
   0.45052493  0.93381760  0.59411359
   0.50914538  0.03943205  0.58586542
   0.24424715  0.37040632  0.42094710
   0.65852534  0.33000211  0.45034791
   0.46005699  0.31720526  0.52884090
   0.33729937  0.58994254  0.39908301
   0.80306880  0.47646866  0.57972336
   0.06920979  0.89885916  0.48050551
   0.21190758  0.14445432  0.37359659
   0.07823286  0.49398500  0.49468762
   0.55757019  0.85234010  0.47473025
   0.71815774  0.58479669  0.60960508
   0.28664212  0.21010174  0.45911077
   0.08823510  0.62555498  0.56761790
   0.35404443  0.01726234  0.57845540
   0.48619797  0.47984413  0.56960403
   0.49403743  0.48282332  0.69231324

 position of ions in cartesian coordinates  (Angst):
  12.93747001  8.41819458 21.37967635
  12.49752278  9.28779087 20.43290574
  12.99417649  6.91752495 21.31081227
  12.65749083 10.79895138 20.64148854
  17.80391874  1.87923485 17.49973127
  21.68887124  5.04982631  9.57948250
  18.57310935  3.75615001 10.03976840
  22.81522226 17.09935504  8.74523415
  14.64921175 17.45931981 10.08747787
  19.20986618 18.03075152  9.91976410
  17.55830880  2.55833369 12.31360861
  21.43152848  4.52062749 13.68428765
  13.66032332  5.51363182  8.22435231
  20.86688331  6.06430517 16.56215855
  13.78684433  6.51233986 16.53425319
  13.88914916 15.78699786 15.54396521
   0.79556597  6.12545903 17.52432172
  21.89589338  7.60211669 12.20777585
  17.46806539  9.60990927 11.35790489
  18.65908277  6.91872038 17.05191072
  13.83846347 10.30523625 10.16284657
  16.81946503 11.70510107 10.30871170
  19.69247867  9.82944088 11.28015755
   0.11154425 10.94156933  9.61828518
  19.39294954 12.90878407 12.57986315
  20.53603216 10.85145488 19.39018013
  12.17364643 17.85965258 11.33679820
   5.22293275 17.76161802 10.57067472
   5.06558822  4.31016263  8.58198589
   3.68730349  5.97649684  7.50000000
   7.99605455  2.81940544  8.89228530
   5.21406665  0.82920834  8.67629559
  11.97330594 14.93441562 14.69426526
   8.90157075  4.39025108 17.40462702
   5.72181606  1.68455987 16.09234321
   7.38347683  8.82751530 11.89413327
   9.57419369  7.95041833 10.90632902
   9.32938927 14.37219961 10.45189795
   5.71709332 11.87720376  7.91249741
   7.29826932  7.58329756  9.92688859
   9.49267817 10.58787005  9.10861924
   3.26254231  8.84268608  9.46104865
  13.88920341 12.64839014  9.47364424
  10.98005707 15.61013129 11.93160111
   2.85194699  5.85018381 16.44385031
   1.70229205 12.05403588 17.35779786
   5.67303899  6.96998597 18.34842068
   5.72792882 14.76148763 17.98575540
  13.34086296  8.85046439 22.30806236
  13.10882381  8.03212681 18.68046106
  12.65111215  6.47048043 22.25815548
  12.40408748  6.50096346 20.48734488
  14.04368951  6.59355481 21.17557020
  11.69416308 11.25554708 20.92204445
  13.39210441 10.99765479 21.43828217
  12.99369701 11.31146649 19.72835518
   8.63740362 11.74899635 11.80179838
   8.11940335  9.13371715 11.30144811
  20.14987401 10.25768294 18.72990897
   8.16740785 17.34803601 14.25734020
   0.78238531 16.90024384 14.20738524
  14.89790566  1.42919560 13.15609244
   1.60709516  0.94711409 10.62190669
  10.57955332  2.34782959 11.30707087
  18.86679123  3.87160553 12.98914499
  22.78055129  3.28953316 16.09940898
   6.43261122  5.42138249 12.05751853
  13.02497128 14.04561295 11.87575437
   9.19191237 17.57839416 16.64764537
   4.15590840  6.34186120 10.89510594
  20.28873799 12.39436891 17.13151371
  20.26706433 17.52644236 12.55556607
   7.04790320 13.78911669 12.31057251
   9.87045805  4.73421333 10.20482654
  18.98845011  8.43463700 13.98172447
  23.02478235  1.31905417 14.01264554
  12.11603836  8.35935042 16.74895681
   0.80854198 16.67059137 11.54385891
  22.54593219  5.49427402  9.44298747
   1.63005096  6.09065222 10.11814055
   4.87647100 13.20393591 10.62861051
   0.91072893  7.59464512 13.41772355
   5.60750091  5.17752583 15.80346993
   9.30940561  3.51412066 17.32624289
  10.66263316 10.18932919 15.59865266
  21.29812698 13.57593190 14.98717115
  20.34739459  1.95787901 11.88993046
  13.40476402 12.09287863 10.11168720
   3.33439013  2.88355087 10.10739962
   8.19593631 13.88346511 16.31089154
  21.32759690 15.31330728 12.98949491
   1.43600223  9.72877939 11.88926245
  16.58313365 10.06030463 11.28987623
   1.76725442 14.80154966 12.98450890
  16.39878711 14.99633320 11.63069310
  17.09371545  0.88779504 14.59769812
  21.51299634  5.47381545 16.99287452
  17.20217764 15.45133680 16.47820514
  14.63491423  9.55703168 13.07549710
  13.03010146 11.41099800 12.56123752
   9.97824872  4.44250764 14.92187415
  22.90303759 13.19667544 12.81787194
  15.31155297 10.76996698 17.03423073
   9.29795628 13.49557839 13.86399944
  14.10975474  9.38073831 10.36813464
  16.83616696 11.44365437 14.97798415
   3.43590190  6.59579731 16.66504819
   1.55355899  9.94079193 14.56974282
  19.17013955 16.02981824 14.42694536
  19.38959778  6.44001838 12.14868300
  12.34855879  5.41282318 14.31503601
  17.24704546  9.04973350 16.00431055
  13.05025010  3.12466491 10.61647095
  18.86866258  4.64651295 10.30420244
   5.55892333 17.27408272 13.65458756
  16.22024564 14.07131849 14.55168842
  21.62782945 17.21098448 14.86600899
  12.30818899  5.75858697 10.71452528
  10.97759476 17.91733419 14.67808591
  19.61184984  1.71779286 14.51147207
  12.59301152  2.10962891 13.07168996
   8.19848185  3.38158106 11.81890631
   0.27532438 17.44013033  9.01248080
  10.77588227 10.48106512 18.14133818
  15.33358375 16.76934745 10.19493214
   1.78612593 12.43164437 11.71794928
  10.56111078  7.31178180 14.85220448
  16.83785811 12.69249221 10.20446890
  10.49671909 12.70476800 16.22037736
  17.61819454 12.85383871 12.80442605
  18.22741902  2.19431194 16.68707758
  23.25384464  5.58158514 12.05458163
  12.42256325  9.17440125 14.14312704
  19.12182067  9.04361594 11.38355200
   5.52049088  2.62364987 16.27275407
   4.76497818 15.05333538 12.64952801
   5.61829767 10.12251643 14.05429549
   1.43351910 11.33505833 16.76690828
   1.07865368 10.91526714  9.52151395
  18.74283319 17.73320743 16.28453790
  12.59506368  0.50191281 10.87439573
  14.19299466  5.66933922 16.26798837
  20.16990973  0.07395004  9.92550906
   2.22199659  2.70047811 12.55674536
   4.01387554  3.69653169 14.27251594
  15.00637423 12.76530097 12.22697399
  10.22576747  7.42551174 10.38808912
  13.45465894  1.04924952 15.35044322
   3.54535369 10.75328740 10.45651017
   6.26813510 10.91510113 10.54651395
  10.30702051  5.83862961 12.64390410
   5.57211440  2.87241773 11.55719116
   1.70213050  2.72490602 15.12355908
  19.78189000  9.85798495 16.12413816
  14.54261460  5.07285684 11.04652184
  14.10921452 16.15556596 12.56053950
   0.73477264  3.53889327 10.45741115
  14.22520390  3.54172993 14.71852120
   3.10901352 17.00414686 12.89022683
   1.87974213  5.08165903 13.75274941
   8.72991637  1.86480227 15.29876892
   1.56142358 12.63090232 14.40172412
  15.60335582  7.52728779 11.56015827
  18.71312992 13.21851663 15.16560408
  16.47777184 17.34580083 12.64014391
  13.94453146 11.42903410 14.89372976
  16.92262721  5.32192921 12.14235921
  22.88601227  5.69243944 14.71184975
   3.70884928 11.41546963 15.33916822
  14.82716522  5.92171361 13.65139239
  19.18287926  7.18209202 16.27868934
  22.44155659  0.49367766 11.20910044
   6.60520259  3.53426843 13.94343692
   5.83544193  8.02830396 12.39472924
   6.35373663 15.39185756 15.28729516
   4.76813504 12.42343385 13.08920785
   3.44435051  8.62697504 13.24126574
   5.25556837  7.65923965 14.97039457
  21.33745138  8.20429214 12.73515651
  20.36286723 12.76750071 12.47800922
  17.28034963  1.68227812 11.96927179
   5.20160189 16.84878525 10.96698378
   5.89829145  7.28305946 17.45991696
  14.75808668 16.00702016 15.95544675
   9.60385771 14.29878658 11.38342242
  21.48621551  3.55245637 13.66334053
   3.10309823  8.03742302  8.93260776
   3.63220806  5.50021683  8.34890949
   8.73253334  2.37219755  9.35415932
   0.80840580  5.28952440 17.03057161
  13.40739700  4.65476936  8.60535697
   5.72899241 13.94213591 17.46786183
   4.85490080 11.74990155  8.34376522
   6.44687148  7.10699146  9.87629901
   8.55333550 10.82900896  9.20004704
   5.29986878  1.01806603  9.62744117
   5.64688233  3.55318002  8.85384768
  11.73544815 16.16960912 12.22767567
  12.88549433 14.99800576 14.36441423
  12.75317396 11.72540248 17.09133352
  11.20840534  2.18000507 16.02864512
   6.15329448 12.57195556 15.28303953
  10.39026937 15.30409033 15.63484727
  17.92216937 11.17721299 17.45793363
  19.77347510 15.06904027 16.74877917
  14.95952236 13.39560909 16.67176432
   0.19050503  0.60623394 16.21007641
   6.67383837  0.01544851 15.96679269
  11.80548209 17.57704112 16.88842216
  10.53543034  7.46674364 19.09351979
   1.94841153 10.98908596 10.92575188
   9.57901414 13.83142665 15.46854469
  19.70678075  7.99967650 12.57708649
   0.40008717 17.94875972 10.58159830
   0.34415087  5.14987929 10.51358498
   0.21510946  2.08551249 15.39096665
  14.25409380 11.90245784 16.42548666
   5.00937633  8.62159189 13.70346574
  21.42278905 13.69169878 13.34099278
  12.18741762  2.00159257 11.45195358
   9.80919607  3.04380943 15.83802777
   1.95373172  2.52197018 10.94101594
  16.43233932  0.81266960 13.10088356
  15.56990048 16.27354967 11.76083937
  15.21965321  9.13359373 11.56390395
   4.64622069 16.53530673 12.47363180
   5.01761376  6.63984884 16.22652640
  15.76259164 14.74012411 15.98076566
   5.07478674 11.62379044 14.47552467
   8.63383069 13.32142384 12.34509184
  18.66384057 16.09752341 16.01292992
  20.59635046 16.53127210 13.76420082
  13.46468091 10.38606551 13.74174168
  13.80976203  2.09154571 14.12044198
  20.08975493  2.75647993 13.31199648
  19.55931055 10.93704508 17.36188898
   3.13099191  6.52942423  9.59392828
  18.51026388  5.07284540 11.87902451
   9.34522920  3.21642612 10.64589911
  20.03919614 13.59105073 16.03670171
   6.62335422 16.92597855 14.77401431
   0.54020936  5.98811771 13.50205012
  13.45117902 12.60314055 11.70943634
   5.39023881 13.63805193 12.15046292
  13.90075648  5.14823443 14.74230702
  22.82947770  4.93463013 16.20159650
  20.81044864  0.46044249 11.40392910
   2.45156638  3.54245749 13.91877224
   1.12715225 13.28353886 12.97472440
   5.43154943  3.72532222 15.08319230
  13.14328356  4.67138795 10.24864117
  11.17478728 11.30061451 16.73742554
   6.57760893 13.95598262 16.06680531
   4.88127424 11.65920104  9.99508876
  17.33198384 12.88162701 14.40452809
  23.09580766 17.95192475 14.79513414
  16.46058793 13.35205634 11.67438144
  18.44533444  1.07632966 15.50518679
  10.68289909  5.95194918 11.00303640
  10.54737188 16.92193008 15.97177339
  11.91975243  0.71455751 15.75003469
   5.71814202  6.71222076 11.31647527
  15.41693082  5.98004644 12.10686792
  10.77052975  5.74815164 14.21702363
   7.89661487 10.69048859 10.72869482
  18.80088034  8.63420144 15.58491555
   1.62029077 16.28843975 12.91760565
   4.96103076  2.61769098 10.04353415
   1.83153245  8.95161915 13.29886860
  13.05343995 15.44545689 12.76234739
  16.81300232 10.59723932 16.38823673
   6.71066321  3.80730339 12.34244318
   2.06569794 11.33583010 15.25948000
   8.28863838  0.31281497 15.55082849
  11.38252381  8.69536925 15.31287403
  11.56605584  8.74935582 18.61171067



--------------------------------------------------------------------------------------------------------


 k-point  1 :   0.0000 0.0000 0.0000  plane waves:  289505
 k-point  2 :   0.3333 0.0000 0.0000  plane waves:  289422
 k-point  3 :   0.0000 0.3333 0.0000  plane waves:  289550
 k-point  4 :   0.3333 0.3333 0.0000  plane waves:  289551
 k-point  5 :  -0.3333 0.3333 0.0000  plane waves:  289551

 maximum and minimum number of plane-waves per node :     72451    72309

 maximum number of plane-waves:    289551
 maximum index in each direction: 
   IXMAX=   43   IYMAX=   33   IZMAX=   49
   IXMIN=  -43   IYMIN=  -33   IZMIN=  -49


 real space projection operators:
  total allocation   :      13783.04 KBytes
  max/ min on nodes  :       3452.05       3439.27


 parallel 3D FFT for wavefunctions:
    minimum data exchange during FFTs selected (reduces bandwidth)
 parallel 3D FFT for charge:
    minimum data exchange during FFTs selected (reduces bandwidth)


 total amount of memory used by VASP MPI-rank0   697404. kBytes
=======================================================================

   base      :      30000. kBytes
   nonlr-proj:      16968. kBytes
   fftplans  :      30982. kBytes
   grid      :      57864. kBytes
   one-center:       1073. kBytes
   wavefun   :     560517. kBytes

     INWAV:  cpu time    0.0001: real time    0.0001
 Broyden mixing: mesh for mixing (old mesh)
   NGX = 85   NGY = 67   NGZ = 99
  (NGX  =256   NGY  =200   NGZ  =300)
  gives a total of 563805 points

 initial charge density was supplied:
 charge density of overlapping atoms calculated
 number of electron    1258.0000000 magnetization 
 keeping initial charge density in first step


--------------------------------------------------------------------------------------------------------


 Maximum index for non-local projection operator          651
 Maximum index for augmentation-charges          535 (set IRDMAX)


--------------------------------------------------------------------------------------------------------


 First call to EWALD:  gamma=   0.079
 Maximum number of real-space cells 3x 3x 2
 Maximum number of reciprocal cells 3x 2x 3

    FEWALD:  cpu time    0.0292: real time    0.0293


--------------------------------------- Iteration      1(   1)  ---------------------------------------


    POTLOK:  cpu time    0.2762: real time    0.2826
    SETDIJ:  cpu time    0.5756: real time    0.5773
     EDDAV:  cpu time   81.0569: real time   81.3698
       DOS:  cpu time    0.0019: real time    0.0019
    --------------------------------------------
      LOOP:  cpu time   81.9105: real time   82.2316

 eigenvalue-minimisations  :  8576
 total energy-change (2. order) : 0.1287798E+05  (-0.4943812E+05)
 number of electron    1258.0000000 magnetization 
 augmentation part     1258.0000000 magnetization 

 DIPCOR: dipole corrections for dipol
 direction  3 min pos    71,
 dipolmoment           0.000000      0.000000      1.473327 electrons x Angstroem
 Tr[quadrupol]    -95486.207909

 energy correction for charged system         0.000000 eV
 dipol+quadrupol energy correction           -0.017649 eV
 added-field ion interaction        185.593877 eV  (added to PSCEN)


 Free energy of the ion-electron system (eV)
  ---------------------------------------------------
  alpha Z        PSCENC =       675.73918068
  Ewald energy   TEWEN  =    307898.21962898
  -Hartree energ DENC   =   -370127.16438895
  -exchange      EXHF   =         0.00000000
  -V(xc)+E(xc)   XCENC  =      3777.86562753
  PAW double counting   =     59955.48764796   -58973.29898038
  entropy T*S    EENTRO =        -1.68312512
  eigenvalues    EBANDS =     -5034.43004280
  atomic energy  EATOM  =     74707.24229009
  Solvation  Ediel_sol  =         0.00000000
  ---------------------------------------------------
  free energy    TOTEN  =     12877.97783799 eV

  energy without entropy =    12879.66096310  energy(sigma->0) =    12878.81940054


--------------------------------------------------------------------------------------------------------




--------------------------------------- Iteration      1(   2)  ---------------------------------------


     EDDAV:  cpu time   97.2579: real time   97.6178
       DOS:  cpu time    0.0011: real time    0.0011
    --------------------------------------------
      LOOP:  cpu time   97.2590: real time   97.6189

 eigenvalue-minimisations  : 10744
 total energy-change (2. order) :-0.1225106E+05  (-0.1185858E+05)
 number of electron    1258.0000000 magnetization 
 augmentation part     1258.0000000 magnetization 

 DIPCOR: dipole corrections for dipol
 direction  3 min pos    71,
 dipolmoment           0.000000      0.000000      1.473327 electrons x Angstroem
 Tr[quadrupol]    -95486.207909

 energy correction for charged system         0.000000 eV
 dipol+quadrupol energy correction           -0.017649 eV
 added-field ion interaction        185.593877 eV  (added to PSCEN)


 Free energy of the ion-electron system (eV)
  ---------------------------------------------------
  alpha Z        PSCENC =       675.73918068
  Ewald energy   TEWEN  =    307898.21962898
  -Hartree energ DENC   =   -370127.16438895
  -exchange      EXHF   =         0.00000000
  -V(xc)+E(xc)   XCENC  =      3777.86562753
  PAW double counting   =     59955.48764796   -58973.29898038
  entropy T*S    EENTRO =        -0.00000000
  eigenvalues    EBANDS =    -17287.17740098
  atomic energy  EATOM  =     74707.24229009
  Solvation  Ediel_sol  =         0.00000000
  ---------------------------------------------------
  free energy    TOTEN  =       626.91360493 eV

  energy without entropy =      626.91360493  energy(sigma->0) =      626.91360493


--------------------------------------------------------------------------------------------------------




--------------------------------------- Iteration      1(   3)  ---------------------------------------


     EDDAV:  cpu time   84.0795: real time   84.3912
       DOS:  cpu time    0.0011: real time    0.0011
    --------------------------------------------
      LOOP:  cpu time   84.0806: real time   84.3924

 eigenvalue-minimisations  :  8936
 total energy-change (2. order) :-0.2643129E+04  (-0.2633617E+04)
 number of electron    1258.0000000 magnetization 
 augmentation part     1258.0000000 magnetization 

 DIPCOR: dipole corrections for dipol
 direction  3 min pos    71,
 dipolmoment           0.000000      0.000000      1.473327 electrons x Angstroem
 Tr[quadrupol]    -95486.207909

 energy correction for charged system         0.000000 eV
 dipol+quadrupol energy correction           -0.017649 eV
 added-field ion interaction        185.593877 eV  (added to PSCEN)


 Free energy of the ion-electron system (eV)
  ---------------------------------------------------
  alpha Z        PSCENC =       675.73918068
  Ewald energy   TEWEN  =    307898.21962898
  -Hartree energ DENC   =   -370127.16438895
  -exchange      EXHF   =         0.00000000
  -V(xc)+E(xc)   XCENC  =      3777.86562753
  PAW double counting   =     59955.48764796   -58973.29898038
  entropy T*S    EENTRO =        -0.00000000
  eigenvalues    EBANDS =    -19930.30648872
  atomic energy  EATOM  =     74707.24229009
  Solvation  Ediel_sol  =         0.00000000
  ---------------------------------------------------
[...]
     20.26706     17.52644     12.55557        -0.054824      1.261652     -0.945991
      7.04790     13.78912     12.31057        -0.268070     -0.068619     -0.070813
      9.87046      4.73421     10.20483         0.403829      0.009864      0.510777
     18.98845      8.43464     13.98172         0.007972      0.003795     -0.010063
     23.02478      1.31905     14.01265         0.001809      0.003004      0.002292
     12.11604      8.35935     16.74896        -0.000684      0.001523      0.003849
      0.80854     16.67059     11.54386        -0.108570      0.439674     -0.287064
     22.54593      5.49427      9.44299         0.186354     -0.186932      0.418952
      1.63005      6.09065     10.11814         0.289708     -0.135251     -0.023508
      4.87647     13.20394     10.62861         0.426470     -0.156946      0.433984
      0.91073      7.59465     13.41772         0.442110      0.049990      0.185217
      5.60750      5.17753     15.80347         0.006398      0.004774     -0.000346
      9.30941      3.51412     17.32624        -0.006278      0.025146     -0.003947
     10.66263     10.18933     15.59865        -0.000759     -0.009994     -0.002176
     21.29813     13.57593     14.98717         0.000198      0.001204     -0.000774
     20.34739      1.95788     11.88993        -0.088603     -0.042111      0.441707
     13.40476     12.09288     10.11169        -0.258471      0.196162      0.096521
      3.33439      2.88355     10.10740        -0.035755     -0.059968      0.196305
      8.19594     13.88347     16.31089        -0.026037      0.008977      0.001891
     21.32760     15.31331     12.98949         0.316308     -1.477738      0.202973
      1.43600      9.72878     11.88926         0.540395      0.264736      0.071427
     16.58313     10.06030     11.28988        -0.112340     -0.551857     -0.038630
      1.76725     14.80155     12.98451        -0.029067     -6.357334      0.310887
     16.39879     14.99633     11.63069         1.820192     -3.821084     -0.208050
     17.09372      0.88780     14.59770         0.000247     -0.003255     -0.000486
     21.51300      5.47382     16.99287        -0.010671      0.001510      0.000234
     17.20218     15.45134     16.47821        -0.000180     -0.000982      0.003818
     14.63491      9.55703     13.07550         1.991592     -1.225646     -1.180673
     13.03010     11.41100     12.56124        -3.559653     -2.542192      1.515787
      9.97825      4.44251     14.92187        -0.000750      0.016764     -0.007582
     22.90304     13.19668     12.81787         0.413437      0.295559      0.249786
     15.31155     10.76997     17.03423         0.007982      0.001637     -0.001181
      9.29796     13.49558     13.86400         0.001335      0.008590     -0.001147
     14.10975      9.38074     10.36813         0.276929     -0.116235      0.365906
     16.83617     11.44365     14.97798         0.003601     -0.002779      0.005736
      3.43590      6.59580     16.66505        -0.026673     -0.012929      0.000227
      1.55356      9.94079     14.56974        -0.003570      0.011056     -0.012831
     19.17014     16.02982     14.42695        -0.008310      0.008133      0.000499
     19.38960      6.44002     12.14868        -0.130249      0.248282      0.201128
     12.34856      5.41282     14.31504        -0.019881     -0.000679     -0.008786
     17.24705      9.04973     16.00431         0.005025     -0.003485      0.013248
     13.05025      3.12466     10.61647        -1.378578     -1.829449      0.527604
     18.86866      4.64651     10.30420        -0.040882     -0.026551      0.762136
      5.55892     17.27408     13.65459        -0.773044      0.214228     -0.917481
     16.22025     14.07132     14.55169         0.001340     -0.001329     -0.001084
     21.62783     17.21098     14.86601         0.002616      0.012714     -0.011419
     12.30819      5.75859     10.71453        -7.870502      6.648563      3.186453
     10.97759     17.91733     14.67809        -0.014769      0.007622     -0.001607
     19.61185      1.71779     14.51147         0.003977      0.002104     -0.012430
     12.59301      2.10963     13.07169        -2.068844      0.587898     -1.006643
      8.19848      3.38158     11.81891        -0.116494      0.160833      0.038065
      0.27532     17.44013      9.01248        -0.251920      0.115331      0.330418
     10.77588     10.48107     18.14134         0.003125     -0.004878      0.004751
     15.33358     16.76935     10.19493        -0.565153      0.122804      0.629386
      1.78613     12.43164     11.71795         0.013923     -0.126053      0.114376
     10.56111      7.31178     14.85220         0.007674      0.001425     -0.001549
     16.83786     12.69249     10.20447        -0.050151      0.281884      0.493681
     10.49672     12.70477     16.22038        -0.000636      0.002129      0.008011
     17.61819     12.85384     12.80443        -0.367372      0.233514     -1.072879
     18.22742      2.19431     16.68708         0.006607     -0.006118     -0.030348
     23.25384      5.58159     12.05458         0.239975      0.006666     -0.008512
     12.42256      9.17440     14.14313         0.007878      0.004862     -0.005490
     19.12182      9.04362     11.38355         0.341659     -0.393650      0.433640
      5.52049      2.62365     16.27275         0.002690     -0.027673     -0.002288
      4.76498     15.05334     12.64953         0.595282     -6.692613      0.316368
      5.61830     10.12252     14.05430        -0.001608      0.000664      0.005632
      1.43352     11.33506     16.76691         0.000679     -0.003508      0.005035
      1.07865     10.91527      9.52151         0.187849      0.220808      0.443166
     18.74283     17.73321     16.28454        -0.004741     -0.005321      0.003318
     12.59506      0.50191     10.87440        -0.223584      0.376562      0.165859
     14.19299      5.66934     16.26799         0.018124     -0.006341     -0.003623
     20.16991      0.07395      9.92551        -0.067807      0.005245      0.304060
      2.22200      2.70048     12.55675        -0.043103     -0.053855     -0.783668
      4.01388      3.69653     14.27252         0.027592      0.000406      0.017784
     15.00637     12.76530     12.22697         2.653175      0.211990     -0.605161
     10.22577      7.42551     10.38809         0.253307     -0.710900      0.519438
     13.45466      1.04925     15.35044        -0.004963      0.003980     -0.002310
      3.54535     10.75329     10.45651        -0.005887      0.703384      0.084403
      6.26814     10.91510     10.54651         0.141087      0.313970      0.038039
     10.30702      5.83863     12.64390         0.357158     -0.008248     -0.826729
      5.57211      2.87242     11.55719         0.324600      0.284484     -0.356747
      1.70213      2.72491     15.12356        -0.021884     -0.010620      0.006715
     19.78189      9.85798     16.12414        -0.003926      0.000749     -0.001604
     14.54261      5.07286     11.04652         1.386352      0.646847      0.837288
     14.10921     16.15557     12.56054        23.532203     14.648588     -4.514876
      0.73477      3.53889     10.45741         0.414125      0.155585      0.274699
     14.22520      3.54173     14.71852         0.004366     -0.011689     -0.005666
      3.10901     17.00415     12.89023         0.014201     -0.152602     -0.330640
      1.87974      5.08166     13.75275        -0.011321      0.005206      0.001526
      8.72992      1.86480     15.29877        -0.003029      0.003938     -0.000501
      1.56142     12.63090     14.40172        -0.002924     -0.016996      0.003242
     15.60336      7.52729     11.56016        -0.316788      0.190240      0.443881
     18.71313     13.21852     15.16560        -0.001396     -0.000117      0.000479
     16.47777     17.34580     12.64014        -0.774242      0.361977     -0.208364
     13.94453     11.42903     14.89373        -0.003225      0.009569      0.010061
     16.92263      5.32193     12.14236         0.259540      0.046098     -0.022323
     22.88601      5.69244     14.71185        -0.003252      0.006249     -0.005444
      3.70885     11.41547     15.33917         0.008927      0.006177      0.003617
     14.82717      5.92171     13.65139         0.336411      0.184583     -0.684977
     19.18288      7.18209     16.27869         0.001115     -0.003609      0.011080
     22.44156      0.49368     11.20910        -0.302473     -0.372720     -0.321162
      6.60520      3.53427     13.94344        -0.005141      0.000039      0.005195
      5.83544      8.02830     12.39473        -0.036432     -0.734280     -0.619170
      6.35374     15.39186     15.28730        -0.001177     -0.008991      0.001478
      4.76814     12.42343     13.08921         0.261473      0.529867     -0.357508
      3.44435      8.62698     13.24127        -0.323113      0.079197      0.189829
      5.25557      7.65924     14.97039         0.003048     -0.002073     -0.006560
     21.33745      8.20429     12.73516        -0.253892     -0.143787     -0.130681
     20.36287     12.76750     12.47801         0.323054      0.275717      0.439332
     17.28035      1.68228     11.96927        -0.167608     -0.270540      0.485103
      5.20160     16.84879     10.96698        -0.331703      0.363156      0.368182
      5.89829      7.28306     17.45992         0.009045      0.002885     -0.021975
     14.75809     16.00702     15.95545         0.008324     -0.002153      0.004397
      9.60386     14.29879     11.38342        -0.514329     -0.401121      0.370411
     21.48622      3.55246     13.66334        -0.761410     -0.025854     -0.106335
      3.10310      8.03742      8.93261         0.095626     -0.241542      0.317275
      3.63221      5.50022      8.34891        -0.162182      0.543060      0.360324
      8.73253      2.37220      9.35416         0.189760      0.602547      0.346048
      0.80841      5.28952     17.03057         0.003324      0.003971      0.001227
     13.40740      4.65477      8.60536        -0.203848      0.159885      0.214809
      5.72899     13.94214     17.46786        -0.002171     -0.022391     -0.021404
      4.85490     11.74990      8.34377         0.074773     -0.129635      0.505576
      6.44687      7.10699      9.87630         0.018560      0.045466      0.707395
      8.55334     10.82901      9.20005        -0.086725     -0.025234      0.744033
      5.29987      1.01807      9.62744        -0.073479      0.789270      0.118267
      5.64688      3.55318      8.85385        -0.376762     -0.059418      0.454361
     11.73545     16.16961     12.22768        -2.211881      1.019748     -0.695551
     12.88549     14.99801     14.36441        -0.002934     -0.006081     -0.001572
     12.75317     11.72540     17.09133         0.008408     -0.004388     -0.006743
     11.20841      2.18001     16.02865        -0.001462      0.001906     -0.004663
      6.15329     12.57196     15.28304         0.004047      0.002428      0.002634
     10.39027     15.30409     15.63485        -0.000794      0.002425      0.003680
     17.92217     11.17721     17.45793        -0.006807     -0.006068      0.006609
     19.77348     15.06904     16.74878         0.000408      0.003483     -0.003705
     14.95952     13.39561     16.67176        -0.005548      0.003098     -0.006321
      0.19051      0.60623     16.21008         0.003045      0.002886      0.006421
      6.67384      0.01545     15.96679         0.003501     -0.002750     -0.000510
     11.80548     17.57704     16.88842        -0.009665     -0.003780      0.004542
     10.53543      7.46674     19.09352        -0.014050     -0.020874     -0.021136
      1.94841     10.98909     10.92575        -0.064379     -0.147106      0.034009
      9.57901     13.83143     15.46854         0.024284      0.009369     -0.017257
     19.70678      7.99968     12.57709         0.114229     -0.157210     -0.296952
      0.40009     17.94876     10.58160         0.099167     -0.140917      0.305495
      0.34415      5.14988     10.51358         0.044135      0.033924      0.058716
      0.21511      2.08551     15.39097         0.015282      0.013338      0.001460
     14.25409     11.90246     16.42549        -0.013828      0.007276     -0.000745
      5.00938      8.62159     13.70347        -0.000472      0.002940      0.002119
     21.42279     13.69170     13.34099         0.199952      0.238545     -0.639703
     12.18742      2.00159     11.45195         0.167213     -0.065001      0.471258
      9.80920      3.04381     15.83803        -0.001355     -0.011054     -0.002840
      1.95373      2.52197     10.94102         0.075437     -0.117472      0.062813
     16.43234      0.81267     13.10088         0.065042     -0.078862     -0.324443
     15.56990     16.27355     11.76084        -0.473698      4.552730     -0.218447
     15.21965      9.13359     11.56390         0.075401      0.026580      0.244008
      4.64622     16.53531     12.47363        -0.729993      6.174715     -0.361800
      5.01761      6.63985     16.22653         0.007358     -0.007601     -0.000037
     15.76259     14.74012     15.98077        -0.004248      0.003259      0.000049
      5.07479     11.62379     14.47552        -0.005390     -0.008765     -0.002446
      8.63383     13.32142     12.34509        -0.245685     -0.133296      0.160144
     18.66384     16.09752     16.01293         0.004118      0.001578     -0.003584
     20.59635     16.53127     13.76420         0.002805      0.000419      0.004318
     13.46468     10.38607     13.74174        -0.002408     -0.001447     -0.016918
     13.80976      2.09155     14.12044         0.004270      0.007644     -0.001986
     20.08975      2.75648     13.31200        -0.190428     -0.020029     -0.432473
     19.55931     10.93705     17.36189        -0.001808     -0.004884      0.001333
      3.13099      6.52942      9.59393        -0.100720     -0.112683      0.047600
     18.51026      5.07285     11.87902        -0.287521      0.104700      0.075624
      9.34523      3.21643     10.64590        -0.139736     -0.301523      0.224640
     20.03920     13.59105     16.03670        -0.000936      0.001935     -0.004109
      6.62335     16.92598     14.77401         0.001520      0.010973      0.004613
      0.54021      5.98812     13.50205         0.307506      0.186373     -0.403365
     13.45118     12.60314     11.70944         3.906761     -0.906609     -2.460775
      5.39024     13.63805     12.15046         0.100855     -0.589254      0.008452
     13.90076      5.14823     14.74231         0.000632      0.000108      0.002037
     22.82948      4.93463     16.20160         0.002823      0.005008     -0.003477
     20.81045      0.46044     11.40393         0.023398      0.043355      0.105120
      2.45157      3.54246     13.91877        -0.007238      0.000083     -0.007405
      1.12715     13.28354     12.97472        -0.129251     -0.563305     -0.249586
      5.43155      3.72532     15.08319        -0.011471      0.001998     -0.012063
     13.14328      4.67139     10.24864         8.346192     -5.346516     -3.578649
     11.17479     11.30061     16.73743        -0.000256      0.000123     -0.002729
      6.57761     13.95598     16.06681         0.005134      0.004503     -0.005463
      4.88127     11.65920      9.99509         0.073768     -0.076728      0.013419
     17.33198     12.88163     14.40453        -0.003420     -0.001444      0.001368
     23.09581     17.95192     14.79513        -0.004106     -0.015153      0.000318
     16.46059     13.35206     11.67438        -0.703159     -1.356768      0.335055
     18.44533      1.07633     15.50519        -0.006883      0.002310      0.006975
     10.68290      5.95195     11.00304        -1.151548      0.536862      0.469715
     10.54737     16.92193     15.97177        -0.005112     -0.011515      0.006348
     11.91975      0.71456     15.75003        -0.000414      0.014576      0.000101
      5.71814      6.71222     11.31648         0.022672     -0.130689     -0.114622
     15.41693      5.98005     12.10687        -0.165612     -0.462934     -0.810771
     10.77053      5.74815     14.21702         0.010707     -0.000456      0.000355
      7.89661     10.69049     10.72869        -0.117038     -0.073246     -0.049588
     18.80088      8.63420     15.58492         0.004338      0.003362      0.003458
      1.62029     16.28844     12.91761        -0.328762      6.442631     -0.553699
      4.96103      2.61769     10.04353        -0.073107     -0.040293      0.063249
      1.83153      8.95162     13.29887         0.030656     -0.137958     -0.310540
     13.05344     15.44546     12.76235       -22.292055    -15.855852      4.708485
     16.81300     10.59724     16.38824         0.012574      0.000037      0.002139
      6.71066      3.80730     12.34244        -0.220035     -0.004700     -0.749282
      2.06570     11.33583     15.25948         0.001184     -0.001187     -0.007252
      8.28864      0.31281     15.55083        -0.005531      0.020908      0.000973
     11.38252      8.69537     15.31287        -0.015333      0.004904      0.005468
     11.56606      8.74936     18.61171         0.026065      0.011092     -0.011199
 -----------------------------------------------------------------------------------
    total drift:                                0.416794      0.484345      0.220508


--------------------------------------------------------------------------------------------------------



  FREE ENERGIE OF THE ION-ELECTRON SYSTEM (eV)
  ---------------------------------------------------
  free  energy   TOTEN  =     -1886.38061809 eV

  energy  without entropy=    -1886.38061809  energy(sigma->0) =    -1886.38061809



--------------------------------------------------------------------------------------------------------


    POTLOK:  cpu time    0.8285: real time    0.8315


--------------------------------------------------------------------------------------------------------


 stress matrix after NEB project (eV)
    -32.62070      0.10163      0.18778
      0.10163    -33.31793     -0.07267
      0.18778     -0.07267    -25.21291
  FORCES: max atom, RMS     0.039016    0.010406
  FORCE total and by dimension    0.172869    0.037806
  Stress total and by dimension   53.009313   33.317928
 Quasi-Newton relaxation of ions (Broydens 2nd method)
  g(Force)  = 0.144E-02   g(Stress)= 0.000E+00

 Reset! Starting new Quasi-Newton update for ions 


--------------------------------------------------------------------------------------------------------


  
 reached required accuracy - stopping structural energy minimisation
     LOOP+:  cpu time 1214.7628: real time 1219.4267
    4ORBIT:  cpu time    0.0000: real time    0.0000

 total amount of memory used by VASP MPI-rank0   697404. kBytes
=======================================================================

   base      :      30000. kBytes
   nonlr-proj:      16968. kBytes
   fftplans  :      30982. kBytes
   grid      :      57864. kBytes
   one-center:       1073. kBytes
   wavefun   :     560517. kBytes

  
  
 General timing and accounting informations for this job:
 ========================================================
  
                  Total CPU time used (sec):     1321.609
                            User time (sec):     1318.406
                          System time (sec):        3.203
                         Elapsed time (sec):     1347.872
  
                   Maximum memory used (kb):      992316.
                   Average memory used (kb):           0.
  
                          Minor page faults:      3110566
                          Major page faults:          188
                 Voluntary context switches:         6131
