 vasp.5.4.4.18Apr17-6-g9f103f2a35 (build Oct 20 2021 08:33:53) complex           
 executed on             LinuxGNU date 2024.05.04  14:45:03
 running on   32 total cores
 distrk:  each k-point on   32 cores,    1 groups
 distr:  one band on NCORES_PER_BAND=   4 cores,    8 groups


--------------------------------------------------------------------------------------------------------


 INCAR:
 POTCAR:    PAW_PBE C 08Apr2002                   
 POTCAR:    PAW_PBE H 15Jun2001                   
 POTCAR:    PAW_PBE O 08Apr2002                   
 POTCAR:    PAW_PBE Si 05Jan2001                  
 POTCAR:    PAW_PBE W 08Apr2002                   
 POTCAR:    PAW_PBE C 08Apr2002                   
   VRHFIN =C: s2p2                                                              
   LEXCH  = PE                                                                  
   EATOM  =   147.1560 eV,   10.8157 Ry                                         
                                                                                
   TITEL  = PAW_PBE C 08Apr2002                                                 
   LULTRA =        F    use ultrasoft PP ?                                      
   IUNSCR =        1    unscreen: 0-lin 1-nonlin 2-no                           
   RPACOR =    1.200    partial core radius                                     
   POMASS =   12.011; ZVAL   =    4.000    mass and valenz                      
   RCORE  =    1.500    outmost cutoff radius                                   
   RWIGS  =    1.630; RWIGS  =    0.863    wigner-seitz radius (au A)           
   ENMAX  =  400.000; ENMIN  =  300.000 eV                                      
   ICORE  =        2    local potential                                         
   LCOR   =        T    correct aug charges                                     
   LPAW   =        T    paw PP                                                  
   EAUG   =  644.873                                                            
   DEXC   =    0.000                                                            
   RMAX   =    1.529    core radius for proj-oper                               
   RAUG   =    1.300    factor for augmentation sphere                          
   RDEP   =    1.501    radius for radial grids                                 
   RDEPT  =    1.300    core radius for aug-charge                              
                                                                                
   Atomic configuration                                                         
    4 entries                                                                   
     n  l   j            E        occ.                                          
     1  0  0.50      -273.3789   2.0000                                         
     2  0  0.50       -13.7508   2.0000                                         
     2  1  0.50        -5.2854   2.0000                                         
     3  2  1.50        -5.4423   0.0000                                         
   Description                                                                  
     l       E           TYP  RCUT    TYP  RCUT                                 
     0    -13.7508458     23  1.200                                             
     0     -8.2022199     23  1.200                                             
     1     -5.2854383     23  1.500                                             
     1     34.0145650     23  1.500                                             
     2     -5.4423304      7  1.500                                             
  local pseudopotential read in
  partial core-charges read in
  partial kinetic energy density read in
  atomic valenz-charges read in
  non local Contribution for L=           0  read in
    real space projection operators read in
  non local Contribution for L=           0  read in
    real space projection operators read in
  non local Contribution for L=           1  read in
    real space projection operators read in
  non local Contribution for L=           1  read in
    real space projection operators read in
    PAW grid and wavefunctions read in

   number of l-projection  operators is LMAX  =           4
   number of lm-projection operators is LMMAX =           8

 POTCAR:    PAW_PBE H 15Jun2001                   
   VRHFIN =H: ultrasoft test                                                    
   LEXCH  = PE                                                                  
   EATOM  =    12.4884 eV,    0.9179 Ry                                         
                                                                                
   TITEL  = PAW_PBE H 15Jun2001                                                 
   LULTRA =        F    use ultrasoft PP ?                                      
   IUNSCR =        0    unscreen: 0-lin 1-nonlin 2-no                           
   RPACOR =    0.000    partial core radius                                     
   POMASS =    1.000; ZVAL   =    1.000    mass and valenz                      
   RCORE  =    1.100    outmost cutoff radius                                   
   RWIGS  =    0.700; RWIGS  =    0.370    wigner-seitz radius (au A)           
   ENMAX  =  250.000; ENMIN  =  200.000 eV                                      
   RCLOC  =    0.701    cutoff for local pot                                    
   LCOR   =        T    correct aug charges                                     
   LPAW   =        T    paw PP                                                  
   EAUG   =  400.000                                                            
   RMAX   =    1.123    core radius for proj-oper                               
   RAUG   =    1.200    factor for augmentation sphere                          
   RDEP   =    1.112    radius for radial grids                                 
   RDEPT  =    0.926    core radius for aug-charge                              
                                                                                
   Atomic configuration                                                         
    2 entries                                                                   
     n  l   j            E        occ.                                          
     1  0  0.50        -6.4927   1.0000                                         
     2  1  0.50        -3.4015   0.0000                                         
   Description                                                                  
     l       E           TYP  RCUT    TYP  RCUT                                 
     0     -6.4927494     23  1.100                                             
     0      6.8029130     23  1.100                                             
     1     -4.0817478     23  1.100                                             
  local pseudopotential read in
  atomic valenz-charges read in
  non local Contribution for L=           0  read in
    real space projection operators read in
  non local Contribution for L=           0  read in
    real space projection operators read in
  non local Contribution for L=           1  read in
    real space projection operators read in
    PAW grid and wavefunctions read in

   number of l-projection  operators is LMAX  =           3
   number of lm-projection operators is LMMAX =           5

 POTCAR:    PAW_PBE O 08Apr2002                   
   VRHFIN =O: s2p4                                                              
   LEXCH  = PE                                                                  
   EATOM  =   432.3788 eV,   31.7789 Ry                                         
                                                                                
   TITEL  = PAW_PBE O 08Apr2002                                                 
   LULTRA =        F    use ultrasoft PP ?                                      
   IUNSCR =        1    unscreen: 0-lin 1-nonlin 2-no                           
   RPACOR =    1.200    partial core radius                                     
   POMASS =   16.000; ZVAL   =    6.000    mass and valenz                      
   RCORE  =    1.520    outmost cutoff radius                                   
   RWIGS  =    1.550; RWIGS  =    0.820    wigner-seitz radius (au A)           
   ENMAX  =  400.000; ENMIN  =  300.000 eV                                      
   ICORE  =        2    local potential                                         
   LCOR   =        T    correct aug charges                                     
   LPAW   =        T    paw PP                                                  
   EAUG   =  605.392                                                            
   DEXC   =    0.000                                                            
   RMAX   =    1.553    core radius for proj-oper                               
   RAUG   =    1.300    factor for augmentation sphere                          
   RDEP   =    1.550    radius for radial grids                                 
   RDEPT  =    1.329    core radius for aug-charge                              
                                                                                
   Atomic configuration                                                         
    4 entries                                                                   
     n  l   j            E        occ.                                          
     1  0  0.50      -514.6923   2.0000                                         
     2  0  0.50       -23.9615   2.0000                                         
     2  1  0.50        -9.0305   4.0000                                         
     3  2  1.50        -9.5241   0.0000                                         
   Description                                                                  
     l       E           TYP  RCUT    TYP  RCUT                                 
     0    -23.9615318     23  1.200                                             
     0     -9.5240782     23  1.200                                             
     1     -9.0304911     23  1.520                                             
     1      8.1634956     23  1.520                                             
     2     -9.5240782      7  1.500                                             
  local pseudopotential read in
  partial core-charges read in
  partial kinetic energy density read in
  kinetic energy density of atom read in
  atomic valenz-charges read in
  non local Contribution for L=           0  read in
    real space projection operators read in
  non local Contribution for L=           0  read in
    real space projection operators read in
  non local Contribution for L=           1  read in
    real space projection operators read in
  non local Contribution for L=           1  read in
    real space projection operators read in
    PAW grid and wavefunctions read in

   number of l-projection  operators is LMAX  =           4
   number of lm-projection operators is LMMAX =           8

 POTCAR:    PAW_PBE Si 05Jan2001                  
   VRHFIN =Si: s2p2                                                             
   LEXCH  = PE                                                                  
   EATOM  =   103.0669 eV,    7.5752 Ry                                         
                                                                                
   TITEL  = PAW_PBE Si 05Jan2001                                                
   LULTRA =        F    use ultrasoft PP ?                                      
   IUNSCR =        1    unscreen: 0-lin 1-nonlin 2-no                           
   RPACOR =    1.500    partial core radius                                     
   POMASS =   28.085; ZVAL   =    4.000    mass and valenz                      
   RCORE  =    1.900    outmost cutoff radius                                   
   RWIGS  =    2.480; RWIGS  =    1.312    wigner-seitz radius (au A)           
   ENMAX  =  245.345; ENMIN  =  184.009 eV                                      
   ICORE  =        2    local potential                                         
   LCOR   =        T    correct aug charges                                     
   LPAW   =        T    paw PP                                                  
   EAUG   =  322.069                                                            
   DEXC   =    0.000                                                            
   RMAX   =    1.950    core radius for proj-oper                               
   RAUG   =    1.300    factor for augmentation sphere                          
   RDEP   =    1.993    radius for radial grids                                 
   RDEPT  =    1.837    core radius for aug-charge                              
                                                                                
   Atomic configuration                                                         
    6 entries                                                                   
     n  l   j            E        occ.                                          
     1  0  0.50     -1785.8828   2.0000                                         
     2  0  0.50      -139.4969   2.0000                                         
     2  1  1.50       -95.5546   6.0000                                         
     3  0  0.50       -10.8127   2.0000                                         
     3  1  0.50        -4.0811   2.0000                                         
     3  2  1.50        -4.0817   0.0000                                         
   Description                                                                  
     l       E           TYP  RCUT    TYP  RCUT                                 
     0    -10.8127223     23  1.900                                             
     0     -7.6451159     23  1.900                                             
     1     -4.0811372     23  1.900                                             
     1      2.4879257     23  1.900                                             
     2     -4.0817478      7  1.900                                             
  local pseudopotential read in
  partial core-charges read in
  partial kinetic energy density read in
  atomic valenz-charges read in
  non local Contribution for L=           0  read in
    real space projection operators read in
  non local Contribution for L=           0  read in
    real space projection operators read in
  non local Contribution for L=           1  read in
    real space projection operators read in
  non local Contribution for L=           1  read in
    real space projection operators read in
    PAW grid and wavefunctions read in

   number of l-projection  operators is LMAX  =           4
   number of lm-projection operators is LMMAX =           8

 POTCAR:    PAW_PBE W 08Apr2002                   
   VRHFIN =W : 6s5d                                                             
   LEXCH  = PE                                                                  
   EATOM  =   204.6103 eV,   15.0384 Ry                                         
                                                                                
   TITEL  = PAW_PBE W 08Apr2002                                                 
   LULTRA =        F    use ultrasoft PP ?                                      
   IUNSCR =        1    unscreen: 0-lin 1-nonlin 2-no                           
   RPACOR =    2.330    partial core radius                                     
   POMASS =  183.850; ZVAL   =    6.000    mass and valenz                      
   RCORE  =    2.750    outmost cutoff radius                                   
   RWIGS  =    2.750; RWIGS  =    1.455    wigner-seitz radius (au A)           
   ENMAX  =  223.057; ENMIN  =  167.293 eV                                      
   RCLOC  =    2.147    cutoff for local pot                                    
   LCOR   =        T    correct aug charges                                     
   LPAW   =        T    paw PP                                                  
   EAUG   =  373.438                                                            
   DEXC   =    0.000                                                            
   RMAX   =    2.801    core radius for proj-oper                               
   RAUG   =    1.300    factor for augmentation sphere                          
   RDEP   =    2.886    radius for radial grids                                 
   RDEPT  =    2.230    core radius for aug-charge                              
                                                                                
   Atomic configuration                                                         
   16 entries                                                                   
     n  l   j            E        occ.                                          
     1  0  0.50    -69465.5836   2.0000                                         
     2  0  0.50    -11986.2642   2.0000                                         
     2  1  1.50    -10479.8616   6.0000                                         
     3  0  0.50     -2759.0758   2.0000                                         
     3  1  1.50     -2313.1857   6.0000                                         
     3  2  2.50     -1801.1185  10.0000                                         
     4  0  0.50      -567.6791   2.0000                                         
     4  1  1.50      -421.4694   6.0000                                         
     4  2  2.50      -236.3473  10.0000                                         
     4  3  3.50       -31.2666  14.0000                                         
     5  0  0.50       -77.1085   2.0000                                         
     5  1  1.50       -41.3856   6.0000                                         
     5  2  2.50        -3.3185   5.0000                                         
     6  0  0.50        -5.1438   1.0000                                         
     6  1  0.50        -3.8096   0.0000                                         
     5  3  2.50        -1.3606   0.0000                                         
   Description                                                                  
     l       E           TYP  RCUT    TYP  RCUT                                 
     2     -3.3185288     23  2.500                                             
     2     -1.5965414     23  2.500                                             
     0     -5.1438054     23  2.500                                             
     0      4.9117504     23  2.500                                             
     1      2.7211652     23  2.750                                             
     1     27.2116520     23  2.750                                             
  local pseudopotential read in
  partial core-charges read in
  partial kinetic energy density read in
  atomic valenz-charges read in
  non local Contribution for L=           2  read in
    real space projection operators read in
  non local Contribution for L=           2  read in
    real space projection operators read in
  non local Contribution for L=           0  read in
    real space projection operators read in
  non local Contribution for L=           0  read in
    real space projection operators read in
  non local Contribution for L=           1  read in
    real space projection operators read in
  non local Contribution for L=           1  read in
    real space projection operators read in
    PAW grid and wavefunctions read in

   number of l-projection  operators is LMAX  =           6
   number of lm-projection operators is LMMAX =          18

 Optimization of the real space projectors (new method)

 maximal supplied QI-value         = 25.13
 optimisation between [QCUT,QGAM] = [ 11.31, 22.87] = [ 35.82,146.48] Ry 
 Optimized for a Real-space Cutoff    1.00 Angstroem

   l    n(q)    QCUT    max X(q) W(low)/X(q) W(high)/X(q)  e(spline) 
   0      7    11.310   115.676    0.43E-03    0.13E-02    0.19E-06
   0      7    11.310    87.132    0.43E-03    0.13E-02    0.18E-06
   1      6    11.310     4.429    0.42E-03    0.74E-03    0.11E-06
   1      6    11.310     2.733    0.34E-03    0.55E-03    0.92E-07
 Optimization of the real space projectors (new method)

 maximal supplied QI-value         = 34.20
 optimisation between [QCUT,QGAM] = [ 11.29, 22.57] = [ 35.68,142.71] Ry 
 Optimized for a Real-space Cutoff    1.16 Angstroem

   l    n(q)    QCUT    max X(q) W(low)/X(q) W(high)/X(q)  e(spline) 
   0      8    11.287    19.460    0.40E-03    0.73E-03    0.16E-06
   0      8    11.287    12.209    0.38E-03    0.70E-03    0.15E-06
   1      7    11.287     4.655    0.22E-03    0.25E-04    0.22E-06
 Optimization of the real space projectors (new method)

 maximal supplied QI-value         = 24.76
 optimisation between [QCUT,QGAM] = [ 11.39, 22.77] = [ 36.31,145.25] Ry 
 Optimized for a Real-space Cutoff    1.00 Angstroem

   l    n(q)    QCUT    max X(q) W(low)/X(q) W(high)/X(q)  e(spline) 
   0      7    11.387    20.381    0.39E-03    0.13E-02    0.15E-06
   0      7    11.387    15.268    0.42E-03    0.14E-02    0.17E-06
   1      6    11.387     5.964    0.41E-03    0.11E-02    0.17E-06
   1      6    11.387     5.382    0.39E-03    0.87E-03    0.15E-06
 Optimization of the real space projectors (new method)

 maximal supplied QI-value         = 19.84
 optimisation between [QCUT,QGAM] = [ 11.31, 22.82] = [ 35.82,145.81] Ry 
 Optimized for a Real-space Cutoff    1.16 Angstroem

   l    n(q)    QCUT    max X(q) W(low)/X(q) W(high)/X(q)  e(spline) 
   0      8    11.310   159.560    0.27E-03    0.30E-03    0.39E-07
   0      8    11.310   115.863    0.27E-03    0.30E-03    0.38E-07
   1      7    11.310    88.339    0.28E-03    0.28E-03    0.77E-07
   1      7    11.310    48.592    0.27E-03    0.27E-03    0.74E-07
 Optimization of the real space projectors (new method)

 maximal supplied QI-value         = 13.61
 optimisation between [QCUT,QGAM] = [ 11.43, 22.86] = [ 36.58,146.31] Ry 
 Optimized for a Real-space Cutoff    1.56 Angstroem

   l    n(q)    QCUT    max X(q) W(low)/X(q) W(high)/X(q)  e(spline) 
   2     10    11.429   130.855    0.22E-03    0.64E-03    0.11E-05
   2     10    11.429   114.007    0.22E-03    0.64E-03    0.11E-05
   0     11    11.429    84.709    0.39E-04    0.67E-04    0.23E-06
   0     11    11.429    49.163    0.35E-04    0.62E-04    0.21E-06
   1     10    11.429    15.765    0.84E-04    0.15E-03    0.24E-06
   1     10    11.429    10.638    0.58E-04    0.12E-03    0.19E-06

 ----------------------------------------------------------------------------- 
|                                                                             |
|  ADVICE TO THIS USER RUNNING 'VASP/VAMP'   (HEAR YOUR MASTER'S VOICE ...):  |
|                                                                             |
|      You enforced a specific xc-type in the INCAR file,                     |
|      a different type was found on the POTCAR file                          |
|          I HOPE YOU KNOW, WHAT YOU ARE  DOING                               |
|                                                                             |
 ----------------------------------------------------------------------------- 

  PAW_PBE C 08Apr2002                   :
 energy of atom  1       EATOM= -147.1560
 kinetic energy error for atom=    0.0076 (will be added to EATOM!!)
  PAW_PBE H 15Jun2001                   :
 energy of atom  2       EATOM=  -12.4884
 kinetic energy error for atom=    0.0020 (will be added to EATOM!!)
  PAW_PBE O 08Apr2002                   :
 energy of atom  3       EATOM= -432.3788
 kinetic energy error for atom=    0.0224 (will be added to EATOM!!)
  PAW_PBE Si 05Jan2001                  :
 energy of atom  4       EATOM= -103.0669
 kinetic energy error for atom=    0.0006 (will be added to EATOM!!)
  PAW_PBE W 08Apr2002                   :
 energy of atom  5       EATOM= -204.6103
 kinetic energy error for atom=    0.0017 (will be added to EATOM!!)


 POSCAR:  C  H  O Si  W                          
  positions in direct lattice
  velocities in cartesian coordinates
 exchange correlation table for  LEXCH =        9
   RHO(1)=    0.500       N(1)  =     2000
   RHO(2)=  100.500       N(2)  =     4000

 VTST: version 3.2, (02/03/18)

 CHAIN: initializing optimizer
 
 OPT: Using VASP QUASI-newton optimizer
 CHAIN: Read ICHAIN            0

 POSCAR:  C  H  O Si  W                          
  positions in direct lattice
  velocities in cartesian coordinates



--------------------------------------------------------------------------------------------------------


 ion  position               nearest neighbor table
   1  0.511  0.504  0.761-  50 1.09  51 1.10   2 1.60 279 2.06
   2  0.445  0.499  0.777-  52 1.10   4 1.54   1 1.60   3 1.63 279 2.40
   3  0.399  0.486  0.732-  53 1.10   5 1.52   2 1.63 279 2.09
   4  0.429  0.569  0.805-  55 1.10  56 1.10  54 1.10   2 1.54
   5  0.357  0.424  0.742-  58 1.10  57 1.10  59 1.11   3 1.52
   6  0.761  0.103  0.651- 134 0.97
   7  0.926  0.279  0.356-  82 0.98
   8  0.793  0.207  0.373- 117 0.97
   9  0.975  0.944  0.325- 126 0.97
  10  0.626  0.963  0.375- 128 0.98
  11  0.821  0.995  0.369- 146 0.97
  12  0.750  0.141  0.458- 184 0.98
  13  0.915  0.250  0.509- 189 0.97
  14  0.583  0.304  0.306- 194 0.97
  15  0.891  0.335  0.615- 100 0.98
  16  0.587  0.359  0.614- 145 0.97
  17  0.593  0.871  0.578- 187 0.99
  18  0.034  0.339  0.651- 193 0.97
  19  0.935  0.420  0.454- 182 0.98
  20  0.746  0.530  0.422-  96 1.00
  21  0.801  0.385  0.636- 174 0.97
  22  0.591  0.569  0.378- 108 0.99
  23  0.718  0.646  0.383- 131 0.99
  24  0.841  0.542  0.420- 137 0.98
  25  0.005  0.604  0.358- 142 0.97
  26  0.828  0.712  0.468- 183 0.99
  27  0.876  0.599  0.722-  62 0.97
  28  0.520  0.986  0.422- 144 0.99
  29  0.223  0.980  0.393- 185 1.00
  30  0.216  0.238  0.319- 200 0.99
  31  0.158  0.330  0.279- 191 0.97
  32  0.342  0.156  0.331- 192 0.98
  33  0.223  0.046  0.323- 199 0.97
  34  0.511  0.825  0.547- 202 0.97
  35  0.410  0.242  0.658-  87 0.97
  36  0.244  0.094  0.599- 138 0.98
  37  0.315  0.487  0.442-  61 0.99
  38  0.409  0.439  0.406- 150 0.98
  39  0.398  0.793  0.389- 188 0.97
  40  0.244  0.655  0.294- 196 0.97
  41  0.312  0.418  0.369- 197 0.98
  42  0.405  0.584  0.339- 198 0.97
  43  0.139  0.488  0.352- 190 0.98
  44  0.593  0.698  0.352-  91 0.97
  45  0.469  0.861  0.444- 201 0.99
  46  0.119  0.322  0.608- 110 0.97
  47  0.071  0.666  0.645- 141 0.97
  48  0.232  0.384  0.683- 186 0.97
  49  0.246  0.817  0.669- 195 0.97
  50  0.538  0.464  0.780-   1 1.09
  51  0.528  0.560  0.762-   1 1.10
  52  0.442  0.449  0.799-   2 1.10
  53  0.378  0.539  0.724-   3 1.10
  54  0.457  0.576  0.838-   4 1.10
  55  0.433  0.618  0.781-   4 1.10
  56  0.384  0.566  0.818-   4 1.10
  57  0.330  0.417  0.709-   5 1.10
  58  0.380  0.372  0.749-   5 1.10
  59  0.329  0.437  0.774-   5 1.11
  60  0.369  0.648  0.439- 233 1.66 268 1.68
  61  0.347  0.504  0.420-  37 0.99 268 1.67
  62  0.861  0.566  0.697-  27 0.97 239 1.64
  63  0.349  0.960  0.531- 244 1.68 277 1.69
  64  0.033  0.932  0.529- 259 1.63 270 1.66
  65  0.636  0.079  0.489- 237 1.60 226 1.65
  66  0.069  0.052  0.395- 225 1.64 217 1.65
  67  0.452  0.130  0.421- 242 1.65 223 1.65
  68  0.806  0.214  0.483- 241 1.67 238 1.69
  69  0.973  0.181  0.598- 219 1.63 249 1.65
  70  0.275  0.299  0.449- 265 1.65 275 1.66
  71  0.556  0.775  0.442- 246 1.51 273 1.66
  72  0.392  0.971  0.620- 263 1.65 277 1.66
  73  0.178  0.350  0.405- 265 1.66 240 1.67
  74  0.867  0.684  0.638- 243 1.64 239 1.65
  75  0.866  0.967  0.467- 235 1.60 250 1.65
  76  0.301  0.761  0.458- 233 1.65 247 1.67
  77  0.422  0.261  0.380- 242 1.67 262 1.67
  78  0.811  0.465  0.520- 269 1.63 216 1.64
  79  0.983  0.072  0.521- 259 1.68 219 1.69
  80  0.511  0.464  0.627- 278 1.65 279 1.97
  81  0.035  0.920  0.429- 270 1.64 217 1.65
  82  0.963  0.303  0.351-   7 0.98 218 1.65
  83  0.070  0.336  0.376- 218 1.64 240 1.65
  84  0.208  0.729  0.395- 247 1.66 257 1.67
  85  0.039  0.419  0.499- 272 1.64 245 1.65
  86  0.238  0.287  0.587- 230 1.63 253 1.63
  87  0.396  0.195  0.645-  35 0.97 224 1.64
  88  0.454  0.564  0.579- 278 1.67 255 1.69
  89  0.910  0.749  0.557- 243 1.64 222 1.65
  90  0.869  0.108  0.442- 250 1.64 238 1.65
  91  0.573  0.667  0.376-  44 0.97 246 1.68
  92  0.142  0.159  0.376- 271 1.65 225 1.65
  93  0.350  0.766  0.607- 215 1.62 256 1.64
  94  0.911  0.845  0.483- 235 1.62 222 1.66
  95  0.061  0.537  0.442- 272 1.66 214 1.67
  96  0.708  0.555  0.420-  20 1.00 228 1.67
  97  0.075  0.817  0.483- 270 1.50 252 1.65
  98  0.700  0.828  0.433- 227 1.53 260 1.65
  99  0.730  0.049  0.543- 226 1.64 261 1.64
 100  0.918  0.301  0.631-  15 0.98 249 1.63
 101  0.735  0.852  0.613- 234 1.66 231 1.68
 102  0.625  0.527  0.486- 236 1.58 228 1.68
 103  0.557  0.630  0.467- 246 1.52 236 1.63
 104  0.427  0.247  0.556- 224 1.68 267 1.68
 105  0.978  0.728  0.477- 252 1.65 222 1.65
 106  0.654  0.594  0.634- 274 1.64 220 1.67
 107  0.397  0.746  0.516- 233 1.66 215 1.66
 108  0.603  0.518  0.386-  22 0.99 228 1.65
 109  0.720  0.631  0.557- 258 1.63 274 1.64
 110  0.143  0.365  0.615-  46 0.97 230 1.64
 111  0.066  0.548  0.542- 272 1.63 276 1.64
 112  0.818  0.884  0.536- 235 1.65 234 1.67
 113  0.828  0.355  0.452- 241 1.65 216 1.65
 114  0.528  0.299  0.531- 267 1.62 248 1.63
 115  0.737  0.499  0.596- 274 1.65 269 1.66
 116  0.557  0.172  0.395- 254 1.59 223 1.64
 117  0.806  0.256  0.383-   8 0.97 241 1.67
 118  0.237  0.953  0.508- 244 1.58 229 1.67
 119  0.693  0.776  0.542- 258 1.63 231 1.64
 120  0.923  0.950  0.553- 259 1.65 235 1.66
 121  0.526  0.318  0.399- 254 1.45 262 1.66
 122  0.468  0.990  0.546- 263 1.69 264 1.70
 123  0.838  0.095  0.540- 238 1.66 261 1.66
 124  0.538  0.116  0.486- 237 1.60 223 1.67
 125  0.350  0.187  0.440- 275 1.63 242 1.65
 126  0.012  0.962  0.335-   9 0.97 217 1.65
 127  0.458  0.582  0.674- 255 1.64 279 2.06
 128  0.655  0.925  0.379-  10 0.98 227 1.66
 129  0.076  0.686  0.436- 214 1.65 252 1.66
 130  0.452  0.405  0.552- 278 1.68 267 1.70
 131  0.719  0.700  0.380-  23 0.99 260 1.65
 132  0.449  0.703  0.602- 215 1.62 255 1.65
 133  0.753  0.709  0.476- 258 1.63 260 1.69
 134  0.780  0.120  0.621-   6 0.97 261 1.64
 135  0.993  0.308  0.448- 245 1.66 218 1.68
 136  0.534  0.507  0.530- 278 1.64 236 1.65
 137  0.817  0.499  0.423-  24 0.98 216 1.69
 138  0.236  0.146  0.605-  36 0.98 253 1.62
 139  0.204  0.831  0.471- 229 1.50 247 1.63
 140  0.240  0.559  0.522- 232 1.65 221 1.66
 141  0.061  0.625  0.624-  47 0.97 276 1.64
 142  0.046  0.602  0.354-  25 0.97 214 1.65
 143  0.801  0.978  0.605- 234 1.66 261 1.68
 144  0.538  0.028  0.405-  28 0.99 223 1.66
 145  0.605  0.313  0.605-  16 0.97 248 1.64
 146  0.862  0.004  0.369-  11 0.97 250 1.66
 147  0.095  0.149  0.467- 251 1.62 225 1.65
 148  0.171  0.204  0.531- 251 1.61 253 1.63
 149  0.641  0.704  0.455- 246 1.65 260 1.66
 150  0.437  0.410  0.386-  38 0.98 262 1.66
 151  0.574  0.057  0.571- 264 1.62 237 1.65
 152  0.151  0.593  0.389- 257 1.68 214 1.68
 153  0.268  0.602  0.392- 268 1.65 257 1.67
 154  0.440  0.322  0.470- 267 1.64 262 1.69
 155  0.238  0.159  0.430- 271 1.65 275 1.67
 156  0.073  0.149  0.562- 251 1.64 219 1.64
 157  0.845  0.545  0.600- 239 1.66 269 1.66
 158  0.621  0.280  0.411- 266 1.65 254 1.66
 159  0.603  0.892  0.467- 273 1.29 227 1.67
 160  0.031  0.195  0.389- 218 1.66 225 1.66
 161  0.607  0.195  0.548- 237 1.62 248 1.64
 162  0.133  0.938  0.479- 270 1.65 229 1.66
 163  0.080  0.280  0.512- 245 1.64 251 1.65
 164  0.372  0.105  0.572- 277 1.63 224 1.68
 165  0.066  0.696  0.536- 252 1.63 276 1.63
 166  0.666  0.415  0.430- 228 1.65 266 1.65
 167  0.800  0.729  0.564- 258 1.61 243 1.63
 168  0.704  0.957  0.470- 226 1.65 227 1.66
 169  0.598  0.634  0.553- 236 1.62 220 1.63
 170  0.723  0.294  0.452- 241 1.63 266 1.64
 171  0.977  0.314  0.547- 245 1.64 249 1.67
 172  0.158  0.629  0.571- 232 1.63 276 1.65
 173  0.633  0.327  0.508- 248 1.63 266 1.65
 174  0.821  0.397  0.606-  21 0.97 269 1.65
 175  0.959  0.027  0.417- 250 1.64 217 1.65
 176  0.282  0.196  0.519- 275 1.63 253 1.65
 177  0.249  0.443  0.461- 221 1.66 265 1.71
 178  0.272  0.850  0.568- 244 1.64 256 1.65
 179  0.204  0.686  0.487- 232 1.63 247 1.66
 180  0.147  0.476  0.493- 221 1.63 272 1.65
 181  0.225  0.425  0.557- 221 1.61 230 1.63
 182  0.911  0.453  0.474-  19 0.98 216 1.65
 183  0.870  0.705  0.464-  26 0.99 222 1.65
 184  0.738  0.093  0.445-  12 0.98 226 1.66
 185  0.222  0.930  0.408-  29 1.00 229 1.64
 186  0.246  0.401  0.651-  48 0.97 230 1.65
 187  0.631  0.883  0.594-  17 0.99 231 1.62
 188  0.410  0.789  0.423-  39 0.97 233 1.68
 189  0.918  0.196  0.508-  13 0.97 238 1.65
 190  0.133  0.444  0.332-  43 0.98 240 1.65
 191  0.155  0.304  0.311-  31 0.97 240 1.69
 192  0.373  0.131  0.348-  32 0.98 242 1.66
 193  0.034  0.292  0.633-  18 0.97 249 1.66
 194  0.573  0.257  0.320-  14 0.97 254 1.66
 195  0.245  0.772  0.650-  49 0.97 256 1.64
 196  0.207  0.648  0.310-  40 0.97 257 1.65
 197  0.275  0.392  0.367-  41 0.98 265 1.66
 198  0.365  0.598  0.342-  42 0.97 268 1.67
 199  0.226  0.056  0.358-  33 0.97 271 1.69
 200  0.241  0.196  0.329-  30 0.99 271 1.66
 201  0.501  0.892  0.455-  45 0.99 273 1.60
 202  0.550  0.828  0.534-  34 0.97 273 1.67
 203  0.544  0.647  0.635- 220 1.64 255 1.68
 204  0.479  0.122  0.595- 264 1.65 224 1.66
 205  0.262  0.695  0.569- 232 1.65 256 1.65
 206  0.443  0.846  0.582- 263 1.66 215 1.69
 207  0.766  0.617  0.650- 274 1.65 239 1.66
 208  0.845  0.832  0.622- 243 1.66 234 1.68
 209  0.640  0.739  0.621- 220 1.67 231 1.70
 210  0.008  0.033  0.603- 259 1.69 219 1.69
 211  0.284  0.002  0.594- 277 1.69 244 1.70
 212  0.503  0.972  0.628- 263 1.69 264 1.70
 213  0.474  0.381  0.705- 279 1.74
 214  0.083  0.606  0.406- 142 1.65 129 1.65  95 1.67 152 1.68 272 3.13
 215  0.409  0.764  0.575-  93 1.62 132 1.62 107 1.66 206 1.69 256 3.06
 216  0.842  0.441  0.468-  78 1.64 113 1.65 182 1.65 137 1.69
 217  0.017  0.990  0.394-  66 1.65 175 1.65  81 1.65 126 1.65 270 3.11 225 3.13
 218  0.015  0.284  0.391-  83 1.64  82 1.65 160 1.66 135 1.68 245 3.11 225 3.11
 219  0.009  0.114  0.572-  69 1.63 156 1.64  79 1.69 210 1.69 259 2.39 251 3.05 249 3.07
 220  0.609  0.657  0.611- 169 1.63 203 1.64 106 1.67 209 1.67 274 2.88
 221  0.214  0.476  0.510- 181 1.61 180 1.63 140 1.66 177 1.66 232 3.10 265 3.14
 222  0.915  0.756  0.496- 105 1.65 183 1.65  89 1.65  94 1.66 235 2.98 243 3.03
 223  0.521  0.110  0.426- 116 1.64  67 1.65 144 1.66 124 1.67 254 3.08 237 3.12
 224  0.419  0.170  0.590-  87 1.64 204 1.66 104 1.68 164 1.68 277 3.15
 225  0.083  0.139  0.407-  66 1.64 147 1.65  92 1.65 160 1.66 218 3.11 217 3.13 271 3.14
 226  0.702  0.045  0.487-  99 1.64 168 1.65  65 1.65 184 1.66 237 3.09 227 3.10 261 3.15
 227  0.665  0.898  0.437-  98 1.53 168 1.66 128 1.66 159 1.67 273 2.83 260 3.06 226 3.10
 228  0.650  0.504  0.430- 108 1.65 166 1.65  96 1.67 102 1.68 236 3.07
 229  0.198  0.912  0.464- 139 1.50 185 1.64 162 1.66 118 1.67 247 3.01 244 3.06 270 3.07
 230  0.212  0.367  0.603-  86 1.63 181 1.63 110 1.64 186 1.65
 231  0.673  0.813  0.595- 187 1.62 119 1.64 101 1.68 209 1.70 258 2.90
 232  0.216  0.642  0.539- 179 1.63 172 1.63 205 1.65 140 1.65 247 3.09 221 3.10 276 3.12
 233  0.369  0.735  0.459-  76 1.65 107 1.66  60 1.66 188 1.68
 234  0.797  0.888  0.595- 143 1.66 101 1.66 112 1.67 208 1.68 243 2.86 235 2.99
 235  0.879  0.912  0.512-  75 1.60  94 1.62 112 1.65 120 1.66 222 2.98 234 2.99 259 3.05 250 3.14

 236  0.576  0.575  0.512- 102 1.58 169 1.62 103 1.63 136 1.65 246 3.00 228 3.07 278 3.13
 237  0.590  0.115  0.525-  65 1.60 124 1.60 161 1.62 151 1.65 264 2.84 226 3.09 248 3.12 223 3.12

 238  0.858  0.152  0.495- 189 1.65  90 1.65 123 1.66  68 1.69 250 3.07 241 3.15
 239  0.836  0.604  0.646-  62 1.64  74 1.65 157 1.66 207 1.66 274 2.93 243 3.00 269 3.00
 240  0.134  0.360  0.357- 190 1.65  83 1.65  73 1.67 191 1.69 265 3.11
 241  0.791  0.280  0.442- 170 1.63 113 1.65 117 1.67  68 1.67 238 3.15
 242  0.399  0.177  0.396-  67 1.65 125 1.65 192 1.66  77 1.67 262 3.07
 243  0.856  0.750  0.596- 167 1.63  89 1.64  74 1.64 208 1.66 234 2.86 239 3.00 222 3.03
 244  0.283  0.935  0.550- 118 1.58 178 1.64  63 1.68 211 1.70 277 2.38 229 3.06
 245  0.023  0.330  0.502- 163 1.64 171 1.64  85 1.65 135 1.66 249 3.11 218 3.11 251 3.14
 246  0.575  0.695  0.436-  71 1.51 103 1.52 149 1.65  91 1.68 236 3.00 273 3.06 260 3.10
 247  0.230  0.753  0.452- 139 1.63 179 1.66  84 1.66  76 1.67 257 2.97 229 3.01 232 3.09
 248  0.594  0.284  0.548- 173 1.63 114 1.63 145 1.64 161 1.64 237 3.12 266 3.15
 249  0.975  0.272  0.602- 100 1.63  69 1.65 193 1.66 171 1.67 219 3.07 245 3.11
 250  0.889  0.025  0.424-  90 1.64 175 1.64  75 1.65 146 1.66 238 3.07 235 3.14
 251  0.105  0.195  0.518- 148 1.61 147 1.62 156 1.64 163 1.65 219 3.05 245 3.14
 252  0.048  0.733  0.483- 165 1.63 105 1.65  97 1.65 129 1.66 270 3.05
 253  0.232  0.206  0.561- 138 1.62  86 1.63 148 1.63 176 1.65 275 3.03
 254  0.561  0.258  0.381- 121 1.45 116 1.59 158 1.66 194 1.66 262 2.87 223 3.08
 255  0.476  0.624  0.623- 127 1.64 132 1.65 203 1.68  88 1.69 278 2.94 279 3.30
 256  0.281  0.771  0.598-  93 1.64 195 1.64 205 1.65 178 1.65 215 3.06
 257  0.209  0.643  0.372- 196 1.65 153 1.67  84 1.67 152 1.68 247 2.97
 258  0.740  0.710  0.536- 167 1.61 109 1.63 133 1.63 119 1.63 231 2.90 260 2.91 274 3.07
 259  0.986  0.990  0.550-  64 1.63 120 1.65  79 1.68 210 1.69 219 2.39 235 3.05
 260  0.703  0.737  0.434-  98 1.65 131 1.65 149 1.66 133 1.69 258 2.91 227 3.06 246 3.10
 261  0.788  0.059  0.577-  99 1.64 134 1.64 123 1.66 143 1.68 226 3.15
 262  0.456  0.328  0.409- 150 1.66 121 1.66  77 1.67 154 1.69 254 2.87 242 3.07
 263  0.450  0.935  0.595-  72 1.65 206 1.66 122 1.69 212 1.69 264 2.37 277 2.75
 264  0.508  0.040  0.586- 151 1.62 204 1.65 122 1.70 212 1.70 263 2.37 237 2.84
 265  0.244  0.370  0.421-  70 1.65  73 1.66 197 1.66 177 1.71 240 3.11 221 3.14
 266  0.659  0.330  0.450- 170 1.64 158 1.65 166 1.65 173 1.65 248 3.15
 267  0.460  0.318  0.529- 114 1.62 154 1.64 104 1.68 130 1.70
 268  0.337  0.590  0.399- 153 1.65 198 1.67  61 1.67  60 1.68
 269  0.804  0.477  0.580-  78 1.63 174 1.65 157 1.66 115 1.66 274 2.90 239 3.00
 270  0.069  0.899  0.481-  97 1.50  81 1.64 162 1.65  64 1.66 252 3.05 229 3.07 217 3.11
 271  0.212  0.144  0.374-  92 1.65 155 1.65 200 1.66 199 1.69 275 3.12 225 3.14
 272  0.078  0.494  0.495- 111 1.63  85 1.64 180 1.65  95 1.66 276 3.09 214 3.13
 273  0.558  0.852  0.475- 159 1.29 201 1.60  71 1.66 202 1.67 227 2.83 246 3.06
 274  0.718  0.585  0.610- 106 1.64 109 1.64 207 1.65 115 1.65 220 2.88 269 2.90 239 2.93 258 3.07

 275  0.287  0.210  0.459- 176 1.63 125 1.63  70 1.66 155 1.67 253 3.03 271 3.12
 276  0.088  0.625  0.568- 165 1.63 141 1.64 111 1.64 172 1.65 272 3.09 232 3.12
 277  0.353  0.019  0.580- 164 1.63  72 1.66 211 1.69  63 1.69 244 2.38 263 2.75 224 3.15
 278  0.486  0.482  0.571- 136 1.64  80 1.65  88 1.67 130 1.68 255 2.94 236 3.13 279 3.29
 279  0.476  0.475  0.693- 213 1.74  80 1.97 127 2.06   1 2.06   3 2.09   2 2.40 278 3.29 255 3.30


  LATTYP: Found a simple orthorhombic cell.
 ALAT       =    18.1212369514
 B/A-ratio  =     1.2919258579
 C/A-ratio  =     1.4835282260
  
  Lattice vectors:
  
 A1 = (   0.0000000000, -18.1212369514,   0.0000000000)
 A2 = ( -23.4112945954,   0.0000000000,   0.0000000000)
 A3 = (   0.0000000000,   0.0000000000, -26.8833665073)


Analysis of symmetry for initial positions (statically):
=====================================================================
 Subroutine PRICEL returns:
 Original cell was already a primitive cell.
 

 Routine SETGRP: Setting up the symmetry group for a 
 simple orthorhombic supercell.


 Subroutine GETGRP returns: Found  1 space group operations
 (whereof  1 operations were pure point group operations)
 out of a pool of  8 trial point group operations.


The static configuration has the point symmetry C_1 .


Analysis of symmetry for dynamics (positions and initial velocities):
=====================================================================
 Subroutine PRICEL returns:
 Original cell was already a primitive cell.
 

 Routine SETGRP: Setting up the symmetry group for a 
 simple orthorhombic supercell.


 Subroutine GETGRP returns: Found  1 space group operations
 (whereof  1 operations were pure point group operations)
 out of a pool of  8 trial point group operations.


The dynamic configuration has the point symmetry C_1 .


Analysis of constrained symmetry for selective dynamics:
=====================================================================
 Subroutine PRICEL returns:
 Original cell was already a primitive cell.
 

 Routine SETGRP: Setting up the symmetry group for a 
 simple orthorhombic supercell.


 Subroutine GETGRP returns: Found  1 space group operations
 (whereof  1 operations were pure point group operations)
 out of a pool of  8 trial point group operations.


The constrained configuration has the point symmetry C_1 .


 Subroutine INISYM returns: Found  1 space group operations
 (whereof  1 operations are pure point group operations),
 and found     1 'primitive' translations



 KPOINTS: KPOINTS created by Atomic Simulation Env

Automatic generation of k-mesh.
Space group operators:
 irot       det(A)        alpha          n_x          n_y          n_z        tau_x        tau_y        tau_z
    1     1.000000     0.000000     1.000000     0.000000     0.000000     0.000000     0.000000     0.000000
 
 Subroutine IBZKPT returns following result:
 ===========================================
 
 Found      5 irreducible k-points:
 
 Following reciprocal coordinates:
            Coordinates               Weight
  0.000000  0.000000  0.000000      1.000000
  0.333333  0.000000  0.000000      2.000000
  0.000000  0.333333  0.000000      2.000000
  0.333333  0.333333  0.000000      2.000000
 -0.333333  0.333333  0.000000      2.000000
 
 Following cartesian coordinates:
            Coordinates               Weight
  0.000000  0.000000  0.000000      1.000000
  0.014238  0.000000  0.000000      2.000000
  0.000000  0.018395  0.000000      2.000000
  0.014238  0.018395  0.000000      2.000000
 -0.014238  0.018395  0.000000      2.000000
 


--------------------------------------------------------------------------------------------------------




 Dimension of arrays:
   k-points           NKPTS =      5   k-points in BZ     NKDIM =      5   number of bands    NBANDS=    776
   number of dos      NEDOS =    301   number of ions     NIONS =    279
   non local maximal  LDIM  =      6   non local SUM 2l+1 LMDIM =     18
   total plane-waves  NPLWV = ******
   max r-space proj   IRMAX =   2748   max aug-charges    IRDMAX=   9808
   dimension x,y,z NGX =   128 NGY =  100 NGZ =  150
   dimension x,y,z NGXF=   256 NGYF=  200 NGZF=  300
   support grid    NGXF=   256 NGYF=  200 NGZF=  300
   ions per type =               5  54 154  65   1
   NGX,Y,Z   is equivalent  to a cutoff of   9.09,  9.17,  9.28 a.u.
   NGXF,Y,Z  is equivalent  to a cutoff of  18.18, 18.35, 18.55 a.u.

 SYSTEM =  unknown system                          
 POSCAR =   C  H  O Si  W                          

 Startparameter for this run:
   NWRITE =      2    write-flag & timer
   PREC   = normal    normal or accurate (medium, high low for compatibility)
   ISTART =      0    job   : 0-new  1-cont  2-samecut
   ICHARG =      2    charge: 1-file 2-atom 10-const
   ISPIN  =      1    spin polarized calculation?
   LNONCOLLINEAR =      F non collinear calculations
   LSORBIT =      F    spin-orbit coupling
   INIWAV =      1    electr: 0-lowe 1-rand  2-diag
   LASPH  =      T    aspherical Exc in radial PAW
   METAGGA=      F    non-selfconsistent MetaGGA calc.

 Electronic Relaxation 1
   ENCUT  =  500.0 eV  36.75 Ry    6.06 a.u.  42.68 33.04 49.01*2*pi/ulx,y,z
   ENINI  =  500.0     initial cutoff
   ENAUG  =  644.9 eV  augmentation charge cutoff
   NELM   =     60;   NELMIN=  2; NELMDL=  0     # of ELM steps 
   EDIFF  = 0.1E-03   stopping-criterion for ELM
   LREAL  =      T    real-space projection
   NLSPLINE    = F    spline interpolate recip. space projectors
   LCOMPAT=      F    compatible to vasp.4.4
   GGA_COMPAT  = T    GGA compatible to vasp.4.4-vasp.4.6
   LMAXPAW     = -100 max onsite density
   LMAXMIX     =    2 max onsite mixed and CHGCAR
   VOSKOWN=      0    Vosko Wilk Nusair interpolation
   ROPT   =   -0.00050  -0.00050  -0.00050  -0.00050
   ROPT   =   -0.00050
 Ionic relaxation
   EDIFFG = -.5E-01   stopping-criterion for IOM
   NSW    =    150    number of steps for IOM
   NBLOCK =      1;   KBLOCK =    150    inner block; outer block 
   IBRION =      1    ionic relax: 0-MD 1-quasi-New 2-CG
   NFREE  =      0    steps in history (QN), initial steepest desc. (CG)
   ISIF   =      0    stress and relaxation
   IWAVPR =     11    prediction:  0-non 1-charg 2-wave 3-comb
   ISYM   =      2    0-nonsym 1-usesym 2-fastsym
   LCORR  =      T    Harris-Foulkes like correction to forces

   POTIM  = 0.5000    time-step for ionic-motion
   TEIN   =    0.0    initial temperature
   TEBEG  =    0.0;   TEEND  =   0.0 temperature during run
   SMASS  =  -3.00    Nose mass-parameter (am)
   estimated Nose-frequenzy (Omega)   =  0.10E-29 period in steps =****** mass=  -0.125E-25a.u.
   SCALEE = 1.0000    scale energy and forces
   NPACO  =    256;   APACO  = 16.0  distance and # of slots for P.C.
   PSTRESS=    0.0 pullay stress

  Mass of Ions in am
   POMASS =  12.01  1.00 16.00 28.09183.85
  Ionic Valenz
   ZVAL   =   4.00  1.00  6.00  4.00  6.00
  Atomic Wigner-Seitz radii
   RWIGS  =  -1.00 -1.00 -1.00 -1.00 -1.00
  virtual crystal weights 
   VCA    =   1.00  1.00  1.00  1.00  1.00
   NELECT =    1264.0000    total number of electrons
   NUPDOWN=      -1.0000    fix difference up-down

 DOS related values:
   EMIN   =  10.00;   EMAX   =-10.00  energy-range for DOS
   EFERMI =   0.00
   ISMEAR =     0;   SIGMA  =   0.20  broadening in eV -4-tet -1-fermi 0-gaus

 Electronic relaxation 2 (details)
   IALGO  =     68    algorithm
   LDIAG  =      T    sub-space diagonalisation (order eigenvalues)
   LSUBROT=      F    optimize rotation matrix (better conditioning)
   TURBO    =      0    0=normal 1=particle mesh
   IRESTART =      0    0=no restart 2=restart with 2 vectors
   NREBOOT  =      0    no. of reboots
   NMIN     =      0    reboot dimension
   EREF     =   0.00    reference energy to select bands
   IMIX   =      4    mixing-type and parameters
     AMIX     =   0.40;   BMIX     =  1.00
     AMIX_MAG =   1.60;   BMIX_MAG =  1.00
     AMIN     =   0.10
     WC   =   100.;   INIMIX=   1;  MIXPRE=   1;  MAXMIX= -45

 Intra band minimization:
   WEIMIN = 0.0010     energy-eigenvalue tresh-hold
   EBREAK =  0.32E-07  absolut break condition
   DEPER  =   0.30     relativ break condition  

   TIME   =   0.40     timestep for ELM

  volume/ion in A,a.u.               =      40.88       275.86
  Fermi-wavevector in a.u.,A,eV,Ry     =   0.786366  1.486017  8.413461  0.618372
  Thomas-Fermi vector in A             =   1.890890

 Write flags
   LWAVE        =      F    write WAVECAR
   LDOWNSAMPLE  =      F    k-point downsampling of WAVECAR
   LCHARG       =      F    write CHGCAR
   LVTOT        =      F    write LOCPOT, total local potential
   LVHAR        =      F    write LOCPOT, Hartree potential only
   LELF         =      F    write electronic localiz. function (ELF)
   LORBIT       =      0    0 simple, 1 ext, 2 COOP (PROOUT), +10 PAW based schemes


 Dipole corrections
   LMONO  =      F    monopole corrections only (constant potential shift)
   LDIPOL =      T    correct potential (dipole corrections)
   IDIPOL =      3    1-x, 2-y, 3-z, 4-all directions 
   EPSILON=  1.0000000 bulk dielectric constant

 Exchange correlation treatment:
   GGA     =    RP    GGA type
   LEXCH   =     9    internal setting for exchange type
   VOSKOWN=      0    Vosko Wilk Nusair interpolation
   LHFCALC =     F    Hartree Fock is set to
   LHFONE  =     F    Hartree Fock one center treatment
   AEXX    =    0.0000 exact exchange contribution

 Linear response parameters
   LEPSILON=     F    determine dielectric tensor
   LRPA    =     F    only Hartree local field effects (RPA)
   LNABLA  =     F    use nabla operator in PAW spheres
   LVEL    =     F    velocity operator in full k-point grid
   LINTERFAST=   F  fast interpolation
   KINTER  =     0    interpolate to denser k-point grid
   CSHIFT  =0.1000    complex shift for real part using Kramers Kronig
   OMEGAMAX=  -1.0    maximum frequency
   DEG_THRESHOLD= 0.2000000E-02 threshold for treating states as degnerate
   RTIME   =   -0.100 relaxation time in fs
  (WPLASMAI=    0.000 imaginary part of plasma frequency in eV, 0.658/RTIME)
   DFIELD  = 0.0000000 0.0000000 0.0000000 field for delta impulse in time

 Orbital magnetization related:
   ORBITALMAG=     F  switch on orbital magnetization
   LCHIMAG   =     F  perturbation theory with respect to B field
   DQ        =  0.001000  dq finite difference perturbation B field
   LLRAUG    =     F  two centre corrections for induced B field



--------------------------------------------------------------------------------------------------------


 quasi-Newton-method for relaxation of ions
   using selective dynamics as specified on POSCAR
 charge density and potential will be updated during run
 non-spin polarized calculation
 RMM-DIIS sequential band-by-band and
  variant of blocked Davidson during initial phase
 perform sub-space diagonalisation
    before iterative eigenvector-optimisation
 modified Broyden-mixing scheme, WC =      100.0
 initial mixing is a Kerker type mixing with AMIX =  0.4000 and BMIX =      1.0000
 Hartree-type preconditioning will be used
 using additional bands          144
 real space projection scheme for non local part
 use partial core corrections
 calculate Harris-corrections to forces   (improved forces if not selfconsistent)
 use gradient corrections 
 use of overlap-Matrix (Vanderbilt PP)
 Gauss-broadening in eV      SIGMA  =   0.20


--------------------------------------------------------------------------------------------------------


  energy-cutoff  :      500.00
  volume of cell :    11405.04
      direct lattice vectors                 reciprocal lattice vectors
    23.411294595  0.000000000  0.000000000     0.042714426  0.000000000  0.000000000
     0.000000000 18.121236951  0.000000000     0.000000000  0.055183871  0.000000000
     0.000000000  0.000000000 26.883366507     0.000000000  0.000000000  0.037197722

  length of vectors
    23.411294595 18.121236951 26.883366507     0.042714426  0.055183871  0.037197722



 k-points in units of 2pi/SCALE and weight: KPOINTS created by Atomic Simulation Env
   0.00000000  0.00000000  0.00000000       0.111
   0.01423814  0.00000000  0.00000000       0.222
   0.00000000  0.01839462  0.00000000       0.222
   0.01423814  0.01839462  0.00000000       0.222
  -0.01423814  0.01839462  0.00000000       0.222

 k-points in reciprocal lattice and weights: KPOINTS created by Atomic Simulation Env
   0.00000000  0.00000000  0.00000000       0.111
   0.33333333  0.00000000  0.00000000       0.222
   0.00000000  0.33333333  0.00000000       0.222
   0.33333333  0.33333333  0.00000000       0.222
  -0.33333333  0.33333333  0.00000000       0.222

 position of ions in fractional coordinates (direct lattice) 
   0.51112366  0.50364381  0.76051561
   0.44527893  0.49898481  0.77670686
   0.39911753  0.48604609  0.73222122
   0.42870168  0.56928620  0.80543644
   0.35709956  0.42380246  0.74166640
   0.76121513  0.10328387  0.65106019
   0.92642768  0.27866896  0.35633493
   0.79333970  0.20727890  0.37345652
   0.97453911  0.94360860  0.32530279
   0.62573266  0.96347285  0.37523120
   0.82053840  0.99500666  0.36899263
   0.74999307  0.14117876  0.45803819
   0.91549003  0.24951526  0.50916208
   0.58349286  0.30426355  0.30592717
   0.89103028  0.33485553  0.61544219
   0.58697089  0.35944292  0.61447459
   0.59345018  0.87067996  0.57835995
   0.03359741  0.33899146  0.65052586
   0.93527051  0.41951423  0.45410146
   0.74613838  0.53031199  0.42248819
   0.80075089  0.38482152  0.63646246
   0.59110202  0.56868283  0.37803474
   0.71843379  0.64593279  0.38346059
   0.84115291  0.54242660  0.41959617
   0.00476455  0.60379815  0.35777830
   0.82835870  0.71235667  0.46794226
   0.87646165  0.59865675  0.72166042
   0.51999031  0.98556476  0.42170307
   0.22309457  0.98015484  0.39320502
   0.21637369  0.23785146  0.31923033
   0.15750105  0.32980623  0.27898292
   0.34154688  0.15558571  0.33077276
   0.22271586  0.04575893  0.32273843
   0.51117892  0.82521918  0.54669200
   0.40964271  0.24209291  0.65779992
   0.24381090  0.09363256  0.59878677
   0.31538097  0.48713646  0.44243467
   0.40895618  0.43873486  0.40569060
   0.39849950  0.79311361  0.38878680
   0.24420236  0.65543008  0.29432688
   0.31174138  0.41847571  0.36925764
   0.40547429  0.58427965  0.33881989
   0.13935762  0.48797365  0.35192946
   0.59326935  0.69798713  0.35239799
   0.46900683  0.86142747  0.44382838
   0.11930682  0.32248895  0.60837611
   0.07111333  0.66640629  0.64529720
   0.23195027  0.38381409  0.68288460
   0.24583606  0.81749238  0.66890653
   0.53788116  0.46368166  0.78011996
   0.52781193  0.56020177  0.76196792
   0.44185756  0.44887870  0.79940194
   0.37803862  0.53858610  0.72377160
   0.45661755  0.57595876  0.83806612
   0.43339663  0.61795925  0.78135927
   0.38409669  0.56589951  0.81811793
   0.32957198  0.41665751  0.70882728
   0.37958330  0.37169382  0.74897647
   0.32922091  0.43674174  0.77371699
   0.36894173  0.64835510  0.43900002
   0.34681565  0.50403387  0.42038813
   0.86097589  0.56595356  0.69651540
   0.34851542  0.95978782  0.53107563
   0.03305365  0.93206939  0.52851532
   0.63635548  0.07886855  0.48937667
   0.06864615  0.05226542  0.39511073
   0.45189954  0.12956232  0.42059728
   0.80588415  0.21365018  0.48316661
   0.97308334  0.18118309  0.59845065
   0.27476529  0.29917287  0.44851223
   0.55635417  0.77509129  0.44175101
   0.39175569  0.97135379  0.62014926
   0.17751724  0.34996845  0.40527312
   0.86660834  0.68444384  0.63755162
   0.86569601  0.96717693  0.46703846
   0.30104714  0.76093683  0.45792526
   0.42161095  0.26125222  0.37959630
   0.81122976  0.46524520  0.52018034
   0.98334363  0.07197185  0.52100634
   0.51138393  0.46359399  0.62717333
   0.03453641  0.91994776  0.42940526
   0.96303654  0.30319531  0.35125762
   0.06962669  0.33610577  0.37637178
   0.20829566  0.72864429  0.39536010
   0.03890126  0.41910192  0.49910875
   0.23779922  0.28670529  0.58747753
   0.39607822  0.19514809  0.64495520
   0.45431772  0.56364470  0.57892269
   0.91010772  0.74905506  0.55748794
   0.86912727  0.10804334  0.44227833
   0.57257679  0.66733185  0.37613173
   0.14242656  0.15912550  0.37597224
   0.35016136  0.76580132  0.60670436
   0.91099605  0.84504757  0.48317962
   0.06133801  0.53687171  0.44225348
   0.70833903  0.55516655  0.41995768
   0.07548726  0.81680680  0.48299416
   0.70046477  0.82755571  0.43263529
   0.73031190  0.04919725  0.54292302
   0.91783970  0.30095457  0.63133923
   0.73507651  0.85180720  0.61307169
   0.62512195  0.52739400  0.48637871
   0.55657330  0.62970304  0.46724942
   0.42656987  0.24726797  0.55618786
   0.97829009  0.72824363  0.47679564
   0.65414881  0.59407233  0.63358391
   0.39687443  0.74586198  0.51552119
   0.60269007  0.51766545  0.38567099
   0.71994838  0.63058940  0.55703060
   0.14319926  0.36525608  0.61513190
   0.06612753  0.54814305  0.54215445
   0.81821787  0.88408213  0.53616692
   0.82821553  0.35538514  0.45190334
   0.52761623  0.29852728  0.53133213
   0.73714300  0.49906972  0.59562631
   0.55743394  0.17243111  0.39490854
   0.80596408  0.25641257  0.38329286
   0.23744622  0.95325075  0.50791956
   0.69272987  0.77557592  0.54164592
   0.92321871  0.94950656  0.55296371
   0.52573722  0.31778112  0.39855594
   0.46768128  0.98955008  0.54619808
   0.83790305  0.09473890  0.53974645
   0.53790325  0.11641749  0.48623709
   0.35019344  0.18660873  0.43963639
   0.01176032  0.96241390  0.33524376
   0.45765214  0.58249437  0.67420195
   0.65496522  0.92539750  0.37922825
   0.07629334  0.68602626  0.43588102
   0.45245932  0.40478785  0.55234921
   0.71921944  0.70042085  0.37958300
   0.44933582  0.70258416  0.60223572
   0.75255106  0.70932458  0.47629548
   0.77961191  0.12046709  0.62088198
   0.99327462  0.30801347  0.44840298
   0.53432577  0.50716518  0.53049467
   0.81677759  0.49906173  0.42344221
   0.23567690  0.14563943  0.60537522
   0.20353331  0.83070132  0.47053363
   0.23983338  0.55937322  0.52247460
   0.06091740  0.62534562  0.62394455
   0.04607407  0.60234669  0.35417863
   0.80052314  0.97809709  0.60539154
   0.53799091  0.02769749  0.40450275
   0.60505103  0.31328522  0.60479430
   0.86154611  0.00408085  0.36920633
   0.09491131  0.14902284  0.46708233
   0.17126660  0.20356111  0.53077339
   0.64098865  0.70443872  0.45481558
   0.43678778  0.40976848  0.38641325
   0.57422480  0.05736403  0.57066457
   0.15143775  0.59340802  0.38895836
   0.26773979  0.60233753  0.39230630
   0.44025846  0.32219818  0.47032443
   0.23800967  0.15851113  0.42990119
   0.07261421  0.14925493  0.56236072
   0.84511492  0.54494019  0.59953493
   0.62117943  0.27993988  0.41090545
   0.60266699  0.89152667  0.46722346
   0.03138539  0.19528983  0.38899188
   0.60736629  0.19524647  0.54763189
   0.13279973  0.93835464  0.47948708
   0.07986981  0.28002320  0.51224373
   0.37159197  0.10520526  0.57151175
   0.06635891  0.69649036  0.53566785
   0.66648838  0.41538488  0.43001156
   0.79964303  0.72898995  0.56407679
   0.70383856  0.95720843  0.47018456
   0.59789018  0.63369329  0.55335722
   0.72284030  0.29368465  0.45166811
   0.97713080  0.31426418  0.54698195
   0.15803392  0.62948807  0.57066068
   0.63333384  0.32678308  0.50780070
   0.82075372  0.39729139  0.60594751
   0.95857820  0.02724304  0.41695300
   0.28197364  0.19555614  0.51867550
   0.24925755  0.44303289  0.46105570
   0.27235920  0.85000389  0.56827117
   0.20366815  0.68557317  0.48688872
   0.14712345  0.47606988  0.49254493
   0.22531111  0.42457961  0.55726851
   0.91141698  0.45274460  0.47371881
   0.86978818  0.70456011  0.46415352
   0.73812021  0.09283462  0.44522965
   0.22218344  0.92978119  0.40794682
   0.24597308  0.40137301  0.65105199
   0.63060407  0.88272697  0.59368987
   0.41022327  0.78906239  0.42343739
   0.91777135  0.19603829  0.50824515
   0.13254706  0.44353611  0.33227266
   0.15514768  0.30352326  0.31056042
   0.37300515  0.13090704  0.34795342
   0.03369510  0.29180299  0.63335204
   0.57268926  0.25686819  0.32009968
   0.24528444  0.77177944  0.65009442
   0.20737430  0.64840505  0.31036906
   0.27537441  0.39219130  0.36737583
   0.36535081  0.59758663  0.34222079
   0.22638085  0.05618082  0.35811888
   0.24120333  0.19607823  0.32934297
   0.50127293  0.89230162  0.45484168
   0.55016828  0.82785657  0.53429215
   0.54449210  0.64713012  0.63451028
   0.47906350  0.12208702  0.59468901
   0.26171596  0.69469143  0.56909065
   0.44293550  0.84602844  0.58187188
   0.76558811  0.61699143  0.64953038
   0.84502787  0.83176017  0.62248089
   0.63970431  0.73907648  0.62122137
   0.00751189  0.03303399  0.60288680
   0.28405304  0.00170698  0.59444453
   0.50340166  0.97151619  0.62832322
   0.47393645  0.38080649  0.70467684
   0.08322528  0.60642030  0.40641308
   0.40931929  0.76392046  0.57527196
   0.84176382  0.44145312  0.46783897
   0.01708949  0.99048204  0.39361135
   0.01470021  0.28419027  0.39108141
   0.00895318  0.11446127  0.57224695
   0.60881740  0.65711104  0.61129101
   0.21403372  0.47646333  0.50960920
   0.91506213  0.75556094  0.49625454
   0.52057854  0.11045563  0.42598659
   0.41883221  0.16975346  0.58988488
   0.08345253  0.13917208  0.40698087
   0.70189793  0.04484625  0.48732303
   0.66505935  0.89803746  0.43747644
   0.65009874  0.50402706  0.43015089
   0.19846065  0.91248223  0.46399069
   0.21181863  0.36702018  0.60259189
   0.67343492  0.81270063  0.59483475
   0.21638761  0.64192343  0.53867037
   0.36878912  0.73512773  0.45920930
   0.79710312  0.88789087  0.59534919
   0.87930707  0.91195178  0.51188072
   0.57644684  0.57458732  0.51194693
   0.58977253  0.11519214  0.52525579
   0.85812234  0.15211323  0.49517595
   0.83552979  0.60393886  0.64586604
   0.13373852  0.36031890  0.35687228
   0.79065529  0.27993925  0.44187265
   0.39917610  0.17749484  0.39600320
   0.85618311  0.74995435  0.59641548
   0.28282243  0.93508763  0.54982800
   0.02307473  0.33044751  0.50224551
   0.57455938  0.69549008  0.43556436
   0.23024095  0.75260050  0.45196954
   0.59353841  0.28391479  0.54803301
   0.97453464  0.27196141  0.60227780
   0.88890636  0.02540900  0.42420019
   0.10457418  0.19509180  0.51788704
   0.04814566  0.73303709  0.48263019
   0.23176175  0.20609538  0.56104667
   0.56140781  0.25778527  0.38122611
   0.47640467  0.62403035  0.62268728
   0.28117234  0.77101268  0.59774027
   0.20850083  0.64339984  0.37179454
   0.74048830  0.71032527  0.53588271
   0.98602685  0.99003954  0.55032923
   0.70310456  0.73681815  0.43426040
   0.78810936  0.05911159  0.57667035
   0.45631390  0.32845159  0.40928789
   0.44950245  0.93504175  0.59453853
   0.50844015  0.04030157  0.58551947
   0.24424715  0.37040632  0.42094710
   0.65852534  0.33000211  0.45034791
   0.46040811  0.31837182  0.52886774
   0.33729937  0.58994254  0.39908301
   0.80355971  0.47687032  0.57981062
   0.06920979  0.89885916  0.48050551
   0.21190758  0.14445432  0.37359659
   0.07823286  0.49398499  0.49468762
   0.55757019  0.85234010  0.47473025
   0.71832752  0.58455640  0.60971005
   0.28664212  0.21010174  0.45911077
   0.08781323  0.62521562  0.56779003
   0.35311804  0.01905544  0.57968279
   0.48609229  0.48182978  0.57105652
   0.47570040  0.47512286  0.69315599

 position of ions in cartesian coordinates  (Angst):
  11.96606667  9.12664879 20.44521978
  10.42455620  9.04222189 20.88049519
   9.34385800  8.80775630 19.68457151
  10.03646134 10.31617019 21.65284302
   8.36016290  7.67982471 19.93848966
  17.82103157  1.87163148 17.50268976
  21.68887124  5.04982630  9.57948250
  18.57310935  3.75615001 10.03976840
  22.81522226 17.09935504  8.74523415
  14.64921175 17.45931981 10.08747787
  19.20986618 18.03075152  9.91976410
  17.55830880  2.55833368 12.31360861
  21.43280685  4.52152515 13.68799068
  13.66032332  5.51363181  8.22435231
  20.86017240  6.06799634 16.54515796
  13.74174839  6.51355030 16.51914559
  13.89343702 15.77779787 15.54826258
   0.78655875  6.14294461 17.48832516
  21.89589338  7.60211669 12.20777585
  17.46806539  9.60990927 11.35790489
  18.74661501  6.97344195 17.11025351
  13.83846346 10.30523625 10.16284657
  16.81946503 11.70510106 10.30871170
  19.69247867  9.82944087 11.28015755
   0.11154425 10.94156933  9.61828518
  19.39294954 12.90878407 12.57986315
  20.51910194 10.84840077 19.40066153
  12.17364643 17.85965257 11.33679820
   5.22293275 17.76161801 10.57067472
   5.06558822  4.31016263  8.58198589
   3.68730349  5.97649684  7.50000000
   7.99605454  2.81940543  8.89228530
   5.21406665  0.82920834  8.67629559
  11.96736027 14.95399226 14.69692141
   9.59026617  4.38702291 17.68387636
   5.70792869  1.69673774 16.09740416
   7.38347683  8.82751530 11.89413327
   9.57419369  7.95041833 10.90632902
   9.32938926 14.37219961 10.45189795
   5.71709332 11.87720376  7.91249741
   7.29826932  7.58329756  9.92688859
   9.49267817 10.58787004  9.10861924
   3.26254231  8.84268607  9.46104865
  13.88920341 12.64839014  9.47364424
  10.98005707 15.61013128 11.93160111
   2.79312702  5.84389868 16.35519787
   1.66485513 12.07610631 17.34776114
   5.43025606  6.95518610 18.35823708
   5.75534053 14.81397308 17.98245946
  12.59249426  8.40248526 20.97225087
  12.35676048 10.15154892 20.48426299
  10.34445744  8.13423720 21.49061527
   8.85037353  9.75984629 19.45741707
  10.69000806 10.43708509 22.53003872
  10.14637629 11.19818608 21.00556751
   8.99220074 10.25479908 21.99376408
   7.71570668  7.55034954 19.05566357
   8.88653643  6.73555176 20.13500902
   7.70748782  7.91430058 20.80011746
   8.63740362 11.74899635 11.80179838
   8.11940335  9.13371715 11.30144811
  20.15656013 10.25577860 18.72467888
   8.15919706 17.39254243 14.27710092
   0.77382865 16.89025026 14.20827103
  14.89790566  1.42919560 13.15609244
   1.60709516  0.94711408 10.62190669
  10.57955331  2.34782959 11.30707087
  18.86679123  3.87160553 12.98914499
  22.78114073  3.28326170 16.08836822
   6.43261122  5.42138248 12.05751853
  13.02497128 14.04561294 11.87575437
   9.17150788 17.60213218 16.67169996
   4.15590840  6.34186119 10.89510594
  20.28842305 12.40296898 17.13953390
  20.26706432 17.52644236 12.55556607
   7.04790320 13.78911669 12.31057251
   9.87045805  4.73421333 10.20482654
  18.99193879  8.43081845 13.98419884
  23.02134731  1.30421890 14.00640430
  11.97215994  8.40089651 16.86053043
   0.80854198 16.67059137 11.54385891
  22.54593219  5.49427402  9.44298747
   1.63005096  6.09065222 10.11814055
   4.87647100 13.20393591 10.62861051
   0.91072893  7.59464512 13.41772355
   5.56718766  5.19545442 15.79337369
   9.27270397  3.53632485 17.33856707
  10.63616587 10.21393921 15.56339074
  21.30680001 13.57380421 14.98715273
  20.34739459  1.95787901 11.88993046
  13.40476402 12.09287863 10.11168720
   3.33439013  2.88355087 10.10739962
   8.19773074 13.87726725 16.31025554
  21.32759690 15.31330727 12.98949491
   1.43600223  9.72877939 11.88926245
  16.58313365 10.06030463 11.28987623
   1.76725442 14.80154965 12.98450890
  16.39878711 14.99633320 11.63069310
  17.09754715  0.89151499 14.59559863
  21.48781553  5.45366913 16.97252399
  17.20909261 15.43580008 16.48143102
  14.63491423  9.55703168 13.07549710
  13.03010146 11.41099800 12.56123752
   9.98655288  4.48080144 14.95220205
  22.90303759 13.19667544 12.81787194
  15.31447051 10.76532545 17.03286838
   9.29134409 13.51594165 13.85894507
  14.10975474  9.38073831 10.36813464
  16.85492366 11.42705988 14.97485777
   3.35248010  6.61889201 16.53681636
   1.54813105  9.93303015 14.57493682
  19.15553951 16.02066176 14.41397186
  19.38959778  6.44001838 12.14868300
  12.35217900  5.40968352 14.28399633
  17.25747189  9.04376069 16.01244031
  13.05025009  3.12466491 10.61647095
  18.86866258  4.64651294 10.30420244
   5.55892333 17.27408272 13.65458756
  16.21770305 14.05439495 14.56126572
  21.61374509 17.20623335 14.86552617
  12.30818899  5.75858696 10.71452528
  10.94902411 17.93187140 14.68364316
  19.61639503  1.71678606 14.51020177
  12.59301152  2.10962891 13.07168996
   8.19848185  3.38158105 11.81890631
   0.27532438 17.44013032  9.01248080
  10.71422915 10.55551855 18.12481802
  15.33358375 16.76934745 10.19493214
   1.78612593 12.43164436 11.71794928
  10.59265848  7.33525646 14.84900620
  16.83785811 12.69249221 10.20446890
  10.51953314 12.73169396 16.19012363
  17.61819454 12.85383870 12.80442605
  18.25172406  2.18301266 16.69139795
  23.25384464  5.58158513 12.05458163
  12.50925806  9.19046039 14.26148255
  19.12182067  9.04361594 11.38355200
   5.51750129  2.63916659 16.27452403
   4.76497818 15.05333538 12.64952801
   5.61480989 10.13653466 14.04587607
   1.42615518 11.33203609 16.77373010
   1.07865368 10.91526713  9.52151395
  18.74128301 17.72432907 16.27496268
  12.59506368  0.50191281 10.87439573
  14.16502798  5.67711571 16.25890671
  20.16990973  0.07395004  9.92550906
   2.22199659  2.70047811 12.55674536
   4.00957287  3.68877914 14.26897567
  15.00637423 12.76530096 12.22697399
  10.22576747  7.42551173 10.38808912
  13.44334602  1.03950723 15.34138466
   3.54535369 10.75328740 10.45651017
   6.26813510 10.91510113 10.54651395
  10.30702050  5.83862960 12.64390410
   5.57211440  2.87241773 11.55719116
   1.69999264  2.70468404 15.11814924
  19.78523443  9.87499023 16.11751725
  14.54261459  5.07285683 11.04652184
  14.10921452 16.15556596 12.56053950
   0.73477264  3.53889327 10.45741115
  14.21923114  3.53810758 14.72218874
   3.10901351 17.00414686 12.89022683
   1.86985566  5.07436679 13.77083588
   8.69944909  1.90644950 15.36415972
   1.55354798 12.62126688 14.40055521
  15.60335581  7.52728779 11.56015827
  18.72067845 13.21019971 15.16428316
  16.47777184 17.34580083 12.64014391
  13.99738315 11.48330627 14.87610489
  16.92262720  5.32192920 12.14235921
  22.87589693  5.69485565 14.70471633
   3.69977870 11.40710246 15.34128021
  14.82716522  5.92171361 13.65139239
  19.21490701  7.19941146 16.28990913
  22.44155659  0.49367766 11.20910044
   6.60136798  3.54371910 13.94374357
   5.83544193  8.02830396 12.39472924
   6.37628149 15.40312181 15.27704215
   4.76813504 12.42343385 13.08920785
   3.44435051  8.62697504 13.24126574
   5.27482473  7.69390773 14.98125350
  21.33745138  8.20429214 12.73515651
  20.36286723 12.76750071 12.47800922
  17.28034963  1.68227812 11.96927179
   5.20160188 16.84878525 10.96698378
   5.75854819  7.27337542 17.50246926
  14.76325761 15.99610452 15.96038248
   9.60385771 14.29878657 11.38342242
  21.48621551  3.55245637 13.66334053
   3.10309823  8.03742301  8.93260776
   3.63220806  5.50021683  8.34890949
   8.73253334  2.37219755  9.35415932
   0.78884583  5.28783109 17.02663514
  13.40739699  4.65476936  8.60535697
   5.74242634 13.98559814 17.47672651
   4.85490080 11.74990154  8.34376522
   6.44687148  7.10699146  9.87629901
   8.55333550 10.82900896  9.20004704
   5.29986877  1.01806602  9.62744117
   5.64688233  3.55318002  8.85384768
  11.73544815 16.16960912 12.22767567
  12.88015176 15.00178503 14.36357175
  12.74726494 11.72679819 17.05777238
  11.21549661  2.21236783 15.98724263
   6.12710953 12.58866803 15.29907245
  10.36969355 15.33108188 15.64267499
  17.92340878 11.18064788 17.46156336
  19.78319634 15.07252317 16.73438191
  14.97630604 13.39298001 16.70052177
   0.17586312  0.59861667 16.20762676
   6.65004946  0.03093257 15.98067005
  11.78528463 17.60507510 16.89144353
  11.09546590  6.90068469 18.94408588
   1.94841153 10.98908596 10.92575188
   9.58269457 13.84318369 15.46524706
  19.70678074  7.99967650 12.57708649
   0.40008717 17.94875972 10.58159830
   0.34415087  5.14987929 10.51358498
   0.20960545  2.07417987 15.38392460
  14.25320359 11.90766488 16.43356021
   5.01080647  8.63410491 13.70001095
  21.42278905 13.69169878 13.34099278
  12.18741762  2.00159257 11.45195358
   9.80540416  3.07614271 15.85809136
   1.95373172  2.52197018 10.94101594
  16.43233932  0.81266960 13.10088356
  15.56990047 16.27354966 11.76083937
  15.21965321  9.13359373 11.56390395
   4.64622068 16.53530673 12.47363180
   4.95894840  6.65085962 16.19969854
  15.76598323 14.72714072 15.99116062
   5.06591408 11.63244657 14.48127305
   8.63383069 13.32142384 12.34509184
  18.66121604 16.08968090 16.00499039
  20.58571695 16.52569434 13.76107689
  13.49536679 10.41223292 13.76285689
  13.80733847  2.08742405 14.12064387
  20.08975493  2.75647992 13.31199648
  19.56083406 10.94411920 17.36305352
   3.13099191  6.52942423  9.59392828
  18.51026388  5.07284540 11.87902451
   9.34522920  3.21642612 10.64589911
  20.04435512 13.59010050 16.03365595
   6.62123932 16.94494458 14.78122775
   0.54020935  5.98811771 13.50205012
  13.45117902 12.60314055 11.70943634
   5.39023881 13.63805192 12.15046292
  13.89550262  5.14488723 14.73297231
  22.81511759  4.92827713 16.19125472
  20.81044864  0.46044249 11.40392910
   2.44821694  3.53530472 13.92254697
   1.12715225 13.28353886 12.97472440
   5.42584267  3.73470320 15.08282316
  13.14328356  4.67138795 10.24864117
  11.15325017 11.30820175 16.73993025
   6.58260851 13.97170352 16.06927066
   4.88127424 11.65920103  9.99508876
  17.33578968 12.87197259 14.40633134
  23.08416497 17.94074105 14.79470234
  16.46058793 13.35205634 11.67438144
  18.45066048  1.07117515 15.50284046
  10.68289909  5.95194918 11.00303640
  10.52343436 16.94411310 15.98319727
  11.90324218  0.73031423 15.74073449
   5.71814202  6.71222076 11.31647527
  15.41693082  5.98004644 12.10686792
  10.77874995  5.76929119 14.21774532
   7.89661487 10.69048858 10.72869482
  18.81237308  8.64148004 15.58726129
   1.62029077 16.28843974 12.91760565
   4.96103075  2.61769098 10.04353415
   1.83153245  8.95161914 13.29886860
  13.05343995 15.44545689 12.76234739
  16.81697709 10.59288497 16.39105885
   6.71066321  3.80730338 12.34244318
   2.05582142 11.32968037 15.26410735
   8.26695044  0.34530812 15.58382496
  11.38004971  8.73135165 15.35192163
  11.13676221  8.60981401 18.63436651



--------------------------------------------------------------------------------------------------------


 k-point  1 :   0.0000 0.0000 0.0000  plane waves:  289505
 k-point  2 :   0.3333 0.0000 0.0000  plane waves:  289422
 k-point  3 :   0.0000 0.3333 0.0000  plane waves:  289550
 k-point  4 :   0.3333 0.3333 0.0000  plane waves:  289551
 k-point  5 :  -0.3333 0.3333 0.0000  plane waves:  289551

 maximum and minimum number of plane-waves per node :     72451    72309

 maximum number of plane-waves:    289551
 maximum index in each direction: 
   IXMAX=   43   IYMAX=   33   IZMAX=   49
   IXMIN=  -43   IYMIN=  -33   IZMIN=  -49


 real space projection operators:
  total allocation   :      13910.63 KBytes
  max/ min on nodes  :       3479.65       3475.33


 parallel 3D FFT for wavefunctions:
    minimum data exchange during FFTs selected (reduces bandwidth)
 parallel 3D FFT for charge:
    minimum data exchange during FFTs selected (reduces bandwidth)


 total amount of memory used by VASP MPI-rank0   703437. kBytes
=======================================================================

   base      :      30000. kBytes
   nonlr-proj:      17148. kBytes
   fftplans  :      30982. kBytes
   grid      :      57864. kBytes
   one-center:       1088. kBytes
   wavefun   :     566355. kBytes

     INWAV:  cpu time    0.0000: real time    0.0000
 Broyden mixing: mesh for mixing (old mesh)
   NGX = 85   NGY = 67   NGZ = 99
  (NGX  =256   NGY  =200   NGZ  =300)
  gives a total of 563805 points

 initial charge density was supplied:
 charge density of overlapping atoms calculated
 number of electron    1264.0000000 magnetization 
 keeping initial charge density in first step


--------------------------------------------------------------------------------------------------------


 Maximum index for non-local projection operator          654
 Maximum index for augmentation-charges          421 (set IRDMAX)


--------------------------------------------------------------------------------------------------------


 First call to EWALD:  gamma=   0.079
 Maximum number of real-space cells 3x 3x 2
 Maximum number of reciprocal cells 3x 2x 3

    FEWALD:  cpu time    0.0261: real time    0.0262


--------------------------------------- Iteration      1(   1)  ---------------------------------------


    POTLOK:  cpu time    0.2780: real time    0.2865
    SETDIJ:  cpu time    0.5744: real time    0.5760
     EDDAV:  cpu time   82.9905: real time   83.2778
       DOS:  cpu time    0.0019: real time    0.0019
    --------------------------------------------
      LOOP:  cpu time   83.8448: real time   84.1422

 eigenvalue-minimisations  :  8736
 total energy-change (2. order) : 0.1302970E+05  (-0.5045995E+05)
 number of electron    1264.0000000 magnetization 
 augmentation part     1264.0000000 magnetization 

 DIPCOR: dipole corrections for dipol
 direction  3 min pos    78,
 dipolmoment           0.000000      0.000000      8.290489 electrons x Angstroem
 Tr[quadrupol]    -96295.626745

 energy correction for charged system         0.000000 eV
 dipol+quadrupol energy correction           -0.558827 eV
 added-field ion interaction       1151.494432 eV  (added to PSCEN)


 Free energy of the ion-electron system (eV)
  ---------------------------------------------------
  alpha Z        PSCENC =      1646.25241227
  Ewald energy   TEWEN  =    308665.81695610
  -Hartree energ DENC   =   -371034.66922387
  -exchange      EXHF   =         0.00000000
  -V(xc)+E(xc)   XCENC  =      3796.51392626
  PAW double counting   =     60068.29421653   -59086.67348277
  entropy T*S    EENTRO =        -1.63115425
  eigenvalues    EBANDS =     -5903.78316443
  atomic energy  EATOM  =     74879.57743707
  Solvation  Ediel_sol  =         0.00000000
  ---------------------------------------------------
  free energy    TOTEN  =     13029.69792292 eV

  energy without entropy =    13031.32907716  energy(sigma->0) =    13030.51350004


--------------------------------------------------------------------------------------------------------




--------------------------------------- Iteration      1(   2)  ---------------------------------------


     EDDAV:  cpu time   98.0740: real time   98.3996
       DOS:  cpu time    0.0011: real time    0.0011
    --------------------------------------------
      LOOP:  cpu time   98.0751: real time   98.4007

 eigenvalue-minimisations  : 10712
 total energy-change (2. order) :-0.1246486E+05  (-0.1207159E+05)
 number of electron    1264.0000000 magnetization 
 augmentation part     1264.0000000 magnetization 

 DIPCOR: dipole corrections for dipol
 direction  3 min pos    78,
 dipolmoment           0.000000      0.000000      8.290489 electrons x Angstroem
 Tr[quadrupol]    -96295.626745

 energy correction for charged system         0.000000 eV
 dipol+quadrupol energy correction           -0.558827 eV
 added-field ion interaction       1151.494432 eV  (added to PSCEN)


 Free energy of the ion-electron system (eV)
  ---------------------------------------------------
  alpha Z        PSCENC =      1646.25241227
  Ewald energy   TEWEN  =    308665.81695610
  -Hartree energ DENC   =   -371034.66922387
  -exchange      EXHF   =         0.00000000
  -V(xc)+E(xc)   XCENC  =      3796.51392626
  PAW double counting   =     60068.29421653   -59086.67348277
  entropy T*S    EENTRO =        -0.00000000
  eigenvalues    EBANDS =    -18370.27566950
  atomic energy  EATOM  =     74879.57743707
  Solvation  Ediel_sol  =         0.00000000
  ---------------------------------------------------
  free energy    TOTEN  =       564.83657209 eV

  energy without entropy =      564.83657209  energy(sigma->0) =      564.83657209


--------------------------------------------------------------------------------------------------------




--------------------------------------- Iteration      1(   3)  ---------------------------------------


     EDDAV:  cpu time   85.7777: real time   86.0631
       DOS:  cpu time    0.0011: real time    0.0011
    --------------------------------------------
      LOOP:  cpu time   85.7788: real time   86.0642

 eigenvalue-minimisations  :  9072
 total energy-change (2. order) :-0.2598047E+04  (-0.2586458E+04)
 number of electron    1264.0000000 magnetization 
 augmentation part     1264.0000000 magnetization 

 DIPCOR: dipole corrections for dipol
 direction  3 min pos    78,
 dipolmoment           0.000000      0.000000      8.290489 electrons x Angstroem
 Tr[quadrupol]    -96295.626745

 energy correction for charged system         0.000000 eV
 dipol+quadrupol energy correction           -0.558827 eV
 added-field ion interaction       1151.494432 eV  (added to PSCEN)


 Free energy of the ion-electron system (eV)
  ---------------------------------------------------
  alpha Z        PSCENC =      1646.25241227
  Ewald energy   TEWEN  =    308665.81695610
  -Hartree energ DENC   =   -371034.66922387
[...]
     23.02158      1.30677     14.00784         0.001670      0.009452      0.011566
     11.96886      8.40140     16.85955        -0.022507      0.004423     -0.011806
      0.80854     16.67059     11.54386        -0.107410      0.452690     -0.313983
     22.54593      5.49427      9.44299         0.182456     -0.185538      0.397308
      1.63005      6.09065     10.11814         0.302217     -0.126811     -0.044193
      4.87647     13.20394     10.62861         0.413411     -0.175946      0.395107
      0.91073      7.59465     13.41772         0.459569      0.017579      0.153761
      5.56558      5.19443     15.79375        -0.012345     -0.011578      0.004642
      9.27648      3.53792     17.34171         0.016384      0.009934     -0.006047
     10.63313     10.21487     15.56446        -0.013478      0.002310      0.000772
     21.30412     13.57329     14.98684        -0.019043     -0.000555      0.001763
     20.34739      1.95788     11.88993        -0.079115     -0.050908      0.405788
     13.40476     12.09288     10.11169        -0.261071      0.191079      0.053923
      3.33439      2.88355     10.10740        -0.023551     -0.058129      0.172667
      8.19818     13.87734     16.31039         0.004590     -0.003043      0.000677
     21.32760     15.31331     12.98949         0.331017     -1.507148      0.169210
      1.43600      9.72878     11.88926         0.547678      0.277736      0.051016
     16.58313     10.06030     11.28988        -0.091240     -0.551021     -0.065647
      1.76725     14.80155     12.98451        -0.009037     -6.394246      0.304958
     16.39879     14.99633     11.63069         1.821862     -3.806596     -0.224304
     17.09705      0.89237     14.59617        -0.002613      0.000735     -0.006687
     21.48707      5.45366     16.97082         0.011807     -0.011014      0.005618
     17.20708     15.44068     16.48072         0.003119      0.024381     -0.002574
     14.63491      9.55703     13.07550         2.013712     -1.204932     -1.301733
     13.03010     11.41100     12.56124        -3.534673     -2.709184      1.671563
      9.99002      4.48204     14.95437         0.009408     -0.004347      0.015146
     22.90304     13.19668     12.81787         0.431340      0.303725      0.213807
     15.31367     10.76466     17.02894         0.002682     -0.003584     -0.000054
      9.29156     13.51550     13.85831         0.002086      0.001373      0.000401
     14.10975      9.38074     10.36813         0.273559     -0.121511      0.329227
     16.85538     11.42661     14.97361        -0.002758     -0.013793      0.000427
      3.34896      6.62048     16.52933        -0.005381      0.020031     -0.014160
      1.54570      9.93514     14.57205        -0.011564      0.004824     -0.010296
     19.16292     16.01840     14.41756         0.020542      0.002113      0.014164
     19.38960      6.44002     12.14868        -0.130626      0.238603      0.178964
     12.35150      5.40948     14.28696         0.004910     -0.009507      0.007502
     17.25697      9.04234     16.01391         0.003400     -0.002774     -0.005498
     13.05025      3.12466     10.61647        -1.375699     -1.813243      0.495530
     18.86866      4.64651     10.30420        -0.036037     -0.030474      0.731965
      5.55892     17.27408     13.65459        -0.793359      0.238998     -0.941549
     16.21984     14.05561     14.56014         0.000894     -0.005085     -0.005005
     21.61502     17.20725     14.86700         0.015799      0.008584      0.003634
     12.30819      5.75859     10.71453        -7.865638      6.645236      3.156507
     10.95122     17.93367     14.68232         0.007063      0.004190     -0.003295
     19.61506      1.71630     14.51005        -0.002783      0.010302      0.002296
     12.59301      2.10963     13.07169        -2.094496      0.597567     -1.112828
      8.19848      3.38158     11.81891        -0.119242      0.152985      0.031608
      0.27532     17.44013      9.01248        -0.251502      0.109465      0.299140
     10.71533     10.55321     18.12459         0.005656     -0.009126      0.005831
     15.33358     16.76935     10.19493        -0.564736      0.132197      0.597368
      1.78613     12.43164     11.71795         0.026798     -0.140141      0.084654
     10.58968      7.33617     14.84694         0.002041      0.004004     -0.002693
     16.83786     12.69249     10.20447        -0.042012      0.277842      0.459447
     10.52026     12.72847     16.18609        -0.000134      0.000660     -0.022467
     17.61819     12.85384     12.80443        -0.362005      0.231846     -1.082634
     18.24799      2.18451     16.69232        -0.027195      0.005200      0.021293
     23.25384      5.58159     12.05458         0.275979     -0.005983     -0.061131
     12.50225      9.19503     14.25957        -0.024588      0.017860     -0.015515
     19.12182      9.04362     11.38355         0.344070     -0.391905      0.424041
      5.51461      2.63741     16.27599        -0.011761      0.002697     -0.003662
      4.76498     15.05334     12.64953         0.583179     -6.675332      0.304310
      5.61517     10.13624     14.04747         0.000836     -0.006916      0.005490
      1.42903     11.33154     16.77206        -0.008660     -0.000803      0.000233
      1.07865     10.91527      9.52151         0.180053      0.219857      0.418400
     18.74287     17.72602     16.27315        -0.001399      0.001801      0.001803
     12.59506      0.50191     10.87440        -0.224343      0.380616      0.143053
     14.16151      5.67260     16.26278        -0.014254     -0.029021      0.013487
     20.16991      0.07395      9.92551        -0.070629      0.002668      0.273354
      2.22200      2.70048     12.55675        -0.077627     -0.065480     -0.868252
      4.01080      3.68755     14.26766         0.005737     -0.005359     -0.007741
     15.00637     12.76530     12.22697         2.670880      0.223493     -0.653056
     10.22577      7.42551     10.38809         0.250586     -0.700709      0.494282
     13.44390      1.04248     15.34129         0.007806      0.001440      0.004693
      3.54535     10.75329     10.45651        -0.005103      0.696961      0.065068
      6.26814     10.91510     10.54651         0.123888      0.312138      0.011622
     10.30702      5.83863     12.64390         0.316302      0.030988     -0.824687
      5.57211      2.87242     11.55719         0.320384      0.274987     -0.388409
      1.70160      2.70697     15.12167        -0.005257      0.010400      0.008463
     19.78370      9.87398     16.11729        -0.006656     -0.003501     -0.001807
     14.54261      5.07286     11.04652         1.374284      0.638006      0.805620
     14.10921     16.15557     12.56054        23.558447     14.655622     -4.544117
      0.73477      3.53889     10.45741         0.412074      0.163480      0.253345
     14.22326      3.53944     14.72087         0.016164     -0.003072     -0.000129
      3.10901     17.00415     12.89023        -0.011555     -0.145651     -0.330861
      1.87145      5.07442     13.76975        -0.000003     -0.000340     -0.005977
      8.70287      1.90561     15.36574         0.015536     -0.005447      0.004038
      1.55285     12.62340     14.40083        -0.004946      0.010151      0.008245
     15.60336      7.52729     11.56016        -0.314461      0.180495      0.427776
     18.71809     13.21323     15.16493        -0.003282      0.010262      0.012352
     16.47777     17.34580     12.64014        -0.769011      0.366877     -0.219234
     13.99574     11.48282     14.87576        -0.008271     -0.001782      0.001137
     16.92263      5.32193     12.14236         0.270039      0.041790     -0.039911
     22.87784      5.69652     14.70637         0.009091      0.011582      0.009731
      3.69938     11.40743     15.33988         0.007071      0.003136     -0.005370
     14.82717      5.92171     13.65139         0.396770      0.175813     -0.711950
     19.21448      7.19525     16.28796         0.000328     -0.003786     -0.022556
     22.44156      0.49368     11.20910        -0.284996     -0.377849     -0.353578
      6.60142      3.54365     13.94419         0.001511     -0.002194      0.005313
      5.83544      8.02830     12.39473        -0.050480     -0.708376     -0.614104
      6.37643     15.40336     15.28034        -0.006910     -0.009872      0.014118
      4.76814     12.42343     13.08921         0.207839      0.595833     -0.420428
      3.44435      8.62698     13.24127        -0.286056      0.082498      0.198419
      5.27740      7.69201     14.97975         0.002091     -0.005487     -0.007038
     21.33745      8.20429     12.73516        -0.240509     -0.142224     -0.150901
     20.36287     12.76750     12.47801         0.330692      0.276649      0.426919
     17.28035      1.68228     11.96927        -0.162389     -0.263311      0.458144
      5.20160     16.84879     10.96698        -0.331151      0.375402      0.340564
      5.75679      7.27110     17.50195        -0.011605     -0.008012     -0.012493
     14.76291     15.99678     15.95686         0.004570      0.003851     -0.003720
      9.60386     14.29879     11.38342        -0.515546     -0.392772      0.297889
     21.48622      3.55246     13.66334        -0.757917     -0.035338     -0.127863
      3.10310      8.03742      8.93261         0.096030     -0.237853      0.301717
      3.63221      5.50022      8.34891        -0.160448      0.561942      0.353158
      8.73253      2.37220      9.35416         0.180782      0.597346      0.316837
      0.79131      5.28909     17.02684         0.006914     -0.012342     -0.005597
     13.40740      4.65477      8.60536        -0.200001      0.164648      0.188827
      5.73949     13.98277     17.47458        -0.010576     -0.022756     -0.008339
      4.85490     11.74990      8.34377         0.083138     -0.127578      0.505230
      6.44687      7.10699      9.87630         0.019467      0.048452      0.683977
      8.55334     10.82901      9.20005        -0.081418     -0.028271      0.710258
      5.29987      1.01807      9.62744        -0.070748      0.789128      0.096982
      5.64688      3.55318      8.85385        -0.374816     -0.053147      0.433082
     11.73545     16.16961     12.22768        -2.219832      1.044553     -0.728902
     12.87962     15.00118     14.36343         0.011933     -0.006399     -0.004332
     12.74770     11.72606     17.06022        -0.005620      0.004069      0.002838
     11.21719      2.21335     15.99042         0.005137      0.009683      0.011367
      6.13023     12.59002     15.29060         0.002922      0.012892     -0.016055
     10.37198     15.32989     15.63829         0.009427      0.008071     -0.009573
     17.92265     11.17979     17.46088         0.006020      0.002205     -0.014177
     19.78025     15.07215     16.73993        -0.015233     -0.012436      0.026743
     14.97799     13.39376     16.70104         0.000268      0.001426     -0.000503
      0.17809      0.59770     16.20944         0.009833      0.006268      0.006130
      6.65097      0.02997     15.98181         0.007743      0.005052     -0.002307
     11.78478     17.60508     16.89239        -0.000693     -0.004922     -0.005316
     11.09576      6.89597     18.94022         0.013123      0.000511     -0.022658
      1.94841     10.98909     10.92575        -0.061623     -0.133158      0.085432
      9.58362     13.84333     15.46452         0.004533     -0.012429     -0.007405
     19.70678      7.99968     12.57709         0.122257     -0.166741     -0.262456
      0.40009     17.94876     10.58160         0.088718     -0.135401      0.366299
      0.34415      5.14988     10.51358         0.036268      0.027835      0.110734
      0.21115      2.07493     15.38654         0.001564     -0.000113      0.011594
     14.25329     11.90834     16.43358        -0.003012      0.003284     -0.003279
      5.01113      8.63383     13.70039         0.000395      0.000453     -0.004497
     21.42279     13.69170     13.34099         0.206248      0.226617     -0.627398
     12.18742      2.00159     11.45195         0.189947     -0.070952      0.546821
      9.80667      3.07697     15.86023         0.012421      0.005128      0.012183
      1.95373      2.52197     10.94102         0.072990     -0.118835      0.127157
     16.43234      0.81267     13.10088         0.065322     -0.065599     -0.286379
     15.56990     16.27355     11.76084        -0.486414      4.534785     -0.161537
     15.21965      9.13359     11.56390         0.043293      0.072135      0.339845
      4.64622     16.53531     12.47363        -0.693853      6.166384     -0.299713
      4.95736      6.65047     16.19842        -0.010557     -0.001104     -0.006844
     15.76563     14.72770     15.99081        -0.000590      0.017499     -0.002882
      5.06558     11.63175     14.48020         0.005370      0.001468     -0.006921
      8.63383     13.32142     12.34509        -0.234960     -0.055764      0.195094
     18.66175     16.09063     16.00651         0.002784      0.006556      0.007592
     20.58846     16.52666     13.76209         0.005099      0.001998      0.000786
     13.49441     10.41236     13.76316        -0.002133     -0.002888     -0.004927
     13.80837      2.08957     14.12091         0.002119      0.004785     -0.006323
     20.08975      2.75648     13.31200        -0.184552     -0.024359     -0.401021
     19.55957     10.94413     17.36282        -0.010900     -0.002732     -0.006848
      3.13099      6.52942      9.59393        -0.094961     -0.123799      0.097445
     18.51026      5.07285     11.87902        -0.292979      0.110458      0.123505
      9.34523      3.21643     10.64590        -0.109040     -0.296354      0.274871
     20.04300     13.59090     16.03510        -0.011472      0.005070      0.010307
      6.62158     16.94513     14.78138         0.000807     -0.001791     -0.001196
      0.54021      5.98812     13.50205         0.253283      0.182952     -0.325332
     13.45118     12.60314     11.70944         3.894020     -0.897530     -2.384883
      5.39024     13.63805     12.15046         0.151962     -0.585119      0.062934
     13.89522      5.14525     14.73455         0.000405      0.001721     -0.000043
     22.81659      4.92903     16.19221         0.004199      0.006140      0.006010
     20.81045      0.46044     11.40393         0.007330      0.046084      0.170929
      2.44789      3.53522     13.92302         0.000188     -0.003478      0.002064
      1.12715     13.28354     12.97472        -0.178717     -0.568606     -0.224427
      5.42529      3.73379     15.08321         0.000207     -0.007607      0.004440
     13.14328      4.67139     10.24864         8.350956     -5.346865     -3.506461
     11.15435     11.30781     16.74029         0.000546     -0.005772      0.003470
      6.58287     13.97003     16.06878         0.003084      0.001666     -0.005621
      4.88127     11.65920      9.99509         0.089932     -0.060075      0.076784
     17.33529     12.87135     14.40688        -0.006194      0.002661     -0.005360
     23.08584     17.94165     14.79516         0.011317      0.009689      0.005410
     16.46059     13.35206     11.67438        -0.705475     -1.368791      0.424651
     18.44981      1.07268     15.50409        -0.003124     -0.000871     -0.007013
     10.68290      5.95195     11.00304        -1.147844      0.541970      0.551442
     10.52418     16.94387     15.98245         0.007377     -0.006925     -0.011218
     11.90429      0.73140     15.74183         0.005014      0.007889      0.000827
      5.71814      6.71222     11.31648         0.041969     -0.133864     -0.066475
     15.41693      5.98005     12.10687        -0.163857     -0.443957     -0.766043
     10.77840      5.76999     14.21809        -0.003921      0.002326     -0.004015
      7.89661     10.69049     10.72869        -0.095995     -0.047598      0.023203
     18.81171      8.63993     15.58741        -0.001150     -0.010521      0.003984
      1.62029     16.28844     12.91761        -0.365933      6.433663     -0.489968
      4.96103      2.61769     10.04353        -0.074688     -0.035685      0.120011
      1.83153      8.95162     13.29887         0.000143     -0.166528     -0.264832
     13.05344     15.44546     12.76235       -22.320365    -15.866849      4.764211
     16.81658     10.59240     16.39055        -0.005299     -0.006076     -0.005204
      6.71066      3.80730     12.34244        -0.231542      0.026938     -0.696776
      2.05606     11.33048     15.26233         0.000066      0.002665     -0.006233
      8.26787      0.34380     15.58276         0.005537     -0.007052     -0.005493
     11.37591      8.73210     15.35129        -0.017229      0.009593     -0.008127
     11.13615      8.60699     18.63484        -0.000699     -0.007651     -0.009094
 -----------------------------------------------------------------------------------
    total drift:                                0.199920      0.270571      0.472391


--------------------------------------------------------------------------------------------------------



  FREE ENERGIE OF THE ION-ELECTRON SYSTEM (eV)
  ---------------------------------------------------
  free  energy   TOTEN  =     -1903.55873122 eV

  energy  without entropy=    -1903.55873122  energy(sigma->0) =    -1903.55873122

 d Force = 0.8218425E-03[ 0.231E-03, 0.141E-02]  d Energy = 0.7869008E-03 0.349E-04
 d Force =-0.8937648E+00[-0.896E+00,-0.891E+00]  d Ewald  =-0.8937652E+00 0.394E-06


--------------------------------------------------------------------------------------------------------


    POTLOK:  cpu time    0.8300: real time    0.8325


--------------------------------------------------------------------------------------------------------


 stress matrix after NEB project (eV)
    -32.75829     -0.01134      0.39463
     -0.01134    -33.24910     -0.43225
      0.39463     -0.43225    -25.07246
  FORCES: max atom, RMS     0.035033    0.010547
  FORCE total and by dimension    0.176172    0.029021
  Stress total and by dimension   52.989822   33.249096
 Quasi-Newton relaxation of ions (Broydens 2nd method)
  g(Force)  = 0.150E-02   g(Stress)= 0.000E+00

 retain information from N=  3 steps
 eigenvalues of (default step * inverse Hessian matrix)
  average eigenvalue of G=   2.4551
 eigenvalue spectrum of G is  6.9056  0.2298  0.2298


--------------------------------------------------------------------------------------------------------


  
 reached required accuracy - stopping structural energy minimisation
     LOOP+:  cpu time  182.8436: real time  183.4694
    4ORBIT:  cpu time    0.0000: real time    0.0000

 total amount of memory used by VASP MPI-rank0   703437. kBytes
=======================================================================

   base      :      30000. kBytes
   nonlr-proj:      17148. kBytes
   fftplans  :      30982. kBytes
   grid      :      57864. kBytes
   one-center:       1088. kBytes
   wavefun   :     566355. kBytes

  
  
 General timing and accounting informations for this job:
 ========================================================
  
                  Total CPU time used (sec):     2840.930
                            User time (sec):     2835.618
                          System time (sec):        5.311
                         Elapsed time (sec):     2851.878
  
                   Maximum memory used (kb):     1001296.
                   Average memory used (kb):           0.
  
                          Minor page faults:      7228365
                          Major page faults:          196
                 Voluntary context switches:         6461
