 vasp.5.4.4.18Apr17-6-g9f103f2a35 (build Oct 20 2021 08:33:53) complex           
 executed on             LinuxGNU date 2025.03.09  12:58:39
 running on   64 total cores
 each image running on    8 cores
 distrk:  each k-point on    8 cores,    1 groups
 distr:  one band on NCORES_PER_BAND=   4 cores,    2 groups


--------------------------------------------------------------------------------------------------------


 INCAR:
 POTCAR:    PAW_PBE C 08Apr2002                   
 POTCAR:    PAW_PBE H 15Jun2001                   
 POTCAR:    PAW_PBE O 08Apr2002                   
 POTCAR:    PAW_PBE Si 05Jan2001                  
 POTCAR:    PAW_PBE W 08Apr2002                   
 POTCAR:    PAW_PBE C 08Apr2002                   
   VRHFIN =C: s2p2                                                              
   LEXCH  = PE                                                                  
   EATOM  =   147.1560 eV,   10.8157 Ry                                         
                                                                                
   TITEL  = PAW_PBE C 08Apr2002                                                 
   LULTRA =        F    use ultrasoft PP ?                                      
   IUNSCR =        1    unscreen: 0-lin 1-nonlin 2-no                           
   RPACOR =    1.200    partial core radius                                     
   POMASS =   12.011; ZVAL   =    4.000    mass and valenz                      
   RCORE  =    1.500    outmost cutoff radius                                   
   RWIGS  =    1.630; RWIGS  =    0.863    wigner-seitz radius (au A)           
   ENMAX  =  400.000; ENMIN  =  300.000 eV                                      
   ICORE  =        2    local potential                                         
   LCOR   =        T    correct aug charges                                     
   LPAW   =        T    paw PP                                                  
   EAUG   =  644.873                                                            
   DEXC   =    0.000                                                            
   RMAX   =    1.529    core radius for proj-oper                               
   RAUG   =    1.300    factor for augmentation sphere                          
   RDEP   =    1.501    radius for radial grids                                 
   RDEPT  =    1.300    core radius for aug-charge                              
                                                                                
   Atomic configuration                                                         
    4 entries                                                                   
     n  l   j            E        occ.                                          
     1  0  0.50      -273.3789   2.0000                                         
     2  0  0.50       -13.7508   2.0000                                         
     2  1  0.50        -5.2854   2.0000                                         
     3  2  1.50        -5.4423   0.0000                                         
   Description                                                                  
     l       E           TYP  RCUT    TYP  RCUT                                 
     0    -13.7508458     23  1.200                                             
     0     -8.2022199     23  1.200                                             
     1     -5.2854383     23  1.500                                             
     1     34.0145650     23  1.500                                             
     2     -5.4423304      7  1.500                                             
  local pseudopotential read in
  partial core-charges read in
  partial kinetic energy density read in
  atomic valenz-charges read in
  non local Contribution for L=           0  read in
    real space projection operators read in
  non local Contribution for L=           0  read in
    real space projection operators read in
  non local Contribution for L=           1  read in
    real space projection operators read in
  non local Contribution for L=           1  read in
    real space projection operators read in
    PAW grid and wavefunctions read in

   number of l-projection  operators is LMAX  =           4
   number of lm-projection operators is LMMAX =           8

 POTCAR:    PAW_PBE H 15Jun2001                   
   VRHFIN =H: ultrasoft test                                                    
   LEXCH  = PE                                                                  
   EATOM  =    12.4884 eV,    0.9179 Ry                                         
                                                                                
   TITEL  = PAW_PBE H 15Jun2001                                                 
   LULTRA =        F    use ultrasoft PP ?                                      
   IUNSCR =        0    unscreen: 0-lin 1-nonlin 2-no                           
   RPACOR =    0.000    partial core radius                                     
   POMASS =    1.000; ZVAL   =    1.000    mass and valenz                      
   RCORE  =    1.100    outmost cutoff radius                                   
   RWIGS  =    0.700; RWIGS  =    0.370    wigner-seitz radius (au A)           
   ENMAX  =  250.000; ENMIN  =  200.000 eV                                      
   RCLOC  =    0.701    cutoff for local pot                                    
   LCOR   =        T    correct aug charges                                     
   LPAW   =        T    paw PP                                                  
   EAUG   =  400.000                                                            
   RMAX   =    1.123    core radius for proj-oper                               
   RAUG   =    1.200    factor for augmentation sphere                          
   RDEP   =    1.112    radius for radial grids                                 
   RDEPT  =    0.926    core radius for aug-charge                              
                                                                                
   Atomic configuration                                                         
    2 entries                                                                   
     n  l   j            E        occ.                                          
     1  0  0.50        -6.4927   1.0000                                         
     2  1  0.50        -3.4015   0.0000                                         
   Description                                                                  
     l       E           TYP  RCUT    TYP  RCUT                                 
     0     -6.4927494     23  1.100                                             
     0      6.8029130     23  1.100                                             
     1     -4.0817478     23  1.100                                             
  local pseudopotential read in
  atomic valenz-charges read in
  non local Contribution for L=           0  read in
    real space projection operators read in
  non local Contribution for L=           0  read in
    real space projection operators read in
  non local Contribution for L=           1  read in
    real space projection operators read in
    PAW grid and wavefunctions read in

   number of l-projection  operators is LMAX  =           3
   number of lm-projection operators is LMMAX =           5

 POTCAR:    PAW_PBE O 08Apr2002                   
   VRHFIN =O: s2p4                                                              
   LEXCH  = PE                                                                  
   EATOM  =   432.3788 eV,   31.7789 Ry                                         
                                                                                
   TITEL  = PAW_PBE O 08Apr2002                                                 
   LULTRA =        F    use ultrasoft PP ?                                      
   IUNSCR =        1    unscreen: 0-lin 1-nonlin 2-no                           
   RPACOR =    1.200    partial core radius                                     
   POMASS =   16.000; ZVAL   =    6.000    mass and valenz                      
   RCORE  =    1.520    outmost cutoff radius                                   
   RWIGS  =    1.550; RWIGS  =    0.820    wigner-seitz radius (au A)           
   ENMAX  =  400.000; ENMIN  =  300.000 eV                                      
   ICORE  =        2    local potential                                         
   LCOR   =        T    correct aug charges                                     
   LPAW   =        T    paw PP                                                  
   EAUG   =  605.392                                                            
   DEXC   =    0.000                                                            
   RMAX   =    1.553    core radius for proj-oper                               
   RAUG   =    1.300    factor for augmentation sphere                          
   RDEP   =    1.550    radius for radial grids                                 
   RDEPT  =    1.329    core radius for aug-charge                              
                                                                                
   Atomic configuration                                                         
    4 entries                                                                   
     n  l   j            E        occ.                                          
     1  0  0.50      -514.6923   2.0000                                         
     2  0  0.50       -23.9615   2.0000                                         
     2  1  0.50        -9.0305   4.0000                                         
     3  2  1.50        -9.5241   0.0000                                         
   Description                                                                  
     l       E           TYP  RCUT    TYP  RCUT                                 
     0    -23.9615318     23  1.200                                             
     0     -9.5240782     23  1.200                                             
     1     -9.0304911     23  1.520                                             
     1      8.1634956     23  1.520                                             
     2     -9.5240782      7  1.500                                             
  local pseudopotential read in
  partial core-charges read in
  partial kinetic energy density read in
  kinetic energy density of atom read in
  atomic valenz-charges read in
  non local Contribution for L=           0  read in
    real space projection operators read in
  non local Contribution for L=           0  read in
    real space projection operators read in
  non local Contribution for L=           1  read in
    real space projection operators read in
  non local Contribution for L=           1  read in
    real space projection operators read in
    PAW grid and wavefunctions read in

   number of l-projection  operators is LMAX  =           4
   number of lm-projection operators is LMMAX =           8

 POTCAR:    PAW_PBE Si 05Jan2001                  
   VRHFIN =Si: s2p2                                                             
   LEXCH  = PE                                                                  
   EATOM  =   103.0669 eV,    7.5752 Ry                                         
                                                                                
   TITEL  = PAW_PBE Si 05Jan2001                                                
   LULTRA =        F    use ultrasoft PP ?                                      
   IUNSCR =        1    unscreen: 0-lin 1-nonlin 2-no                           
   RPACOR =    1.500    partial core radius                                     
   POMASS =   28.085; ZVAL   =    4.000    mass and valenz                      
   RCORE  =    1.900    outmost cutoff radius                                   
   RWIGS  =    2.480; RWIGS  =    1.312    wigner-seitz radius (au A)           
   ENMAX  =  245.345; ENMIN  =  184.009 eV                                      
   ICORE  =        2    local potential                                         
   LCOR   =        T    correct aug charges                                     
   LPAW   =        T    paw PP                                                  
   EAUG   =  322.069                                                            
   DEXC   =    0.000                                                            
   RMAX   =    1.950    core radius for proj-oper                               
   RAUG   =    1.300    factor for augmentation sphere                          
   RDEP   =    1.993    radius for radial grids                                 
   RDEPT  =    1.837    core radius for aug-charge                              
                                                                                
   Atomic configuration                                                         
    6 entries                                                                   
     n  l   j            E        occ.                                          
     1  0  0.50     -1785.8828   2.0000                                         
     2  0  0.50      -139.4969   2.0000                                         
     2  1  1.50       -95.5546   6.0000                                         
     3  0  0.50       -10.8127   2.0000                                         
     3  1  0.50        -4.0811   2.0000                                         
     3  2  1.50        -4.0817   0.0000                                         
   Description                                                                  
     l       E           TYP  RCUT    TYP  RCUT                                 
     0    -10.8127223     23  1.900                                             
     0     -7.6451159     23  1.900                                             
     1     -4.0811372     23  1.900                                             
     1      2.4879257     23  1.900                                             
     2     -4.0817478      7  1.900                                             
  local pseudopotential read in
  partial core-charges read in
  partial kinetic energy density read in
  atomic valenz-charges read in
  non local Contribution for L=           0  read in
    real space projection operators read in
  non local Contribution for L=           0  read in
    real space projection operators read in
  non local Contribution for L=           1  read in
    real space projection operators read in
  non local Contribution for L=           1  read in
    real space projection operators read in
    PAW grid and wavefunctions read in

   number of l-projection  operators is LMAX  =           4
   number of lm-projection operators is LMMAX =           8

 POTCAR:    PAW_PBE W 08Apr2002                   
   VRHFIN =W : 6s5d                                                             
   LEXCH  = PE                                                                  
   EATOM  =   204.6103 eV,   15.0384 Ry                                         
                                                                                
   TITEL  = PAW_PBE W 08Apr2002                                                 
   LULTRA =        F    use ultrasoft PP ?                                      
   IUNSCR =        1    unscreen: 0-lin 1-nonlin 2-no                           
   RPACOR =    2.330    partial core radius                                     
   POMASS =  183.850; ZVAL   =    6.000    mass and valenz                      
   RCORE  =    2.750    outmost cutoff radius                                   
   RWIGS  =    2.750; RWIGS  =    1.455    wigner-seitz radius (au A)           
   ENMAX  =  223.057; ENMIN  =  167.293 eV                                      
   RCLOC  =    2.147    cutoff for local pot                                    
   LCOR   =        T    correct aug charges                                     
   LPAW   =        T    paw PP                                                  
   EAUG   =  373.438                                                            
   DEXC   =    0.000                                                            
   RMAX   =    2.801    core radius for proj-oper                               
   RAUG   =    1.300    factor for augmentation sphere                          
   RDEP   =    2.886    radius for radial grids                                 
   RDEPT  =    2.230    core radius for aug-charge                              
                                                                                
   Atomic configuration                                                         
   16 entries                                                                   
     n  l   j            E        occ.                                          
     1  0  0.50    -69465.5836   2.0000                                         
     2  0  0.50    -11986.2642   2.0000                                         
     2  1  1.50    -10479.8616   6.0000                                         
     3  0  0.50     -2759.0758   2.0000                                         
     3  1  1.50     -2313.1857   6.0000                                         
     3  2  2.50     -1801.1185  10.0000                                         
     4  0  0.50      -567.6791   2.0000                                         
     4  1  1.50      -421.4694   6.0000                                         
     4  2  2.50      -236.3473  10.0000                                         
     4  3  3.50       -31.2666  14.0000                                         
     5  0  0.50       -77.1085   2.0000                                         
     5  1  1.50       -41.3856   6.0000                                         
     5  2  2.50        -3.3185   5.0000                                         
     6  0  0.50        -5.1438   1.0000                                         
     6  1  0.50        -3.8096   0.0000                                         
     5  3  2.50        -1.3606   0.0000                                         
   Description                                                                  
     l       E           TYP  RCUT    TYP  RCUT                                 
     2     -3.3185288     23  2.500                                             
     2     -1.5965414     23  2.500                                             
     0     -5.1438054     23  2.500                                             
     0      4.9117504     23  2.500                                             
     1      2.7211652     23  2.750                                             
     1     27.2116520     23  2.750                                             
  local pseudopotential read in
  partial core-charges read in
  partial kinetic energy density read in
  atomic valenz-charges read in
  non local Contribution for L=           2  read in
    real space projection operators read in
  non local Contribution for L=           2  read in
    real space projection operators read in
  non local Contribution for L=           0  read in
    real space projection operators read in
  non local Contribution for L=           0  read in
    real space projection operators read in
  non local Contribution for L=           1  read in
    real space projection operators read in
  non local Contribution for L=           1  read in
    real space projection operators read in
    PAW grid and wavefunctions read in

   number of l-projection  operators is LMAX  =           6
   number of lm-projection operators is LMMAX =          18

 Optimization of the real space projectors (new method)

 maximal supplied QI-value         = 25.13
 optimisation between [QCUT,QGAM] = [ 11.31, 22.87] = [ 35.82,146.48] Ry 
 Optimized for a Real-space Cutoff    1.00 Angstroem

   l    n(q)    QCUT    max X(q) W(low)/X(q) W(high)/X(q)  e(spline) 
   0      7    11.310   115.676    0.43E-03    0.13E-02    0.19E-06
   0      7    11.310    87.132    0.43E-03    0.13E-02    0.18E-06
   1      6    11.310     4.429    0.42E-03    0.74E-03    0.11E-06
   1      6    11.310     2.733    0.34E-03    0.55E-03    0.92E-07
 Optimization of the real space projectors (new method)

 maximal supplied QI-value         = 34.20
 optimisation between [QCUT,QGAM] = [ 11.29, 22.57] = [ 35.68,142.71] Ry 
 Optimized for a Real-space Cutoff    1.16 Angstroem

   l    n(q)    QCUT    max X(q) W(low)/X(q) W(high)/X(q)  e(spline) 
   0      8    11.287    19.460    0.40E-03    0.73E-03    0.16E-06
   0      8    11.287    12.209    0.38E-03    0.70E-03    0.15E-06
   1      7    11.287     4.655    0.22E-03    0.25E-04    0.22E-06
 Optimization of the real space projectors (new method)

 maximal supplied QI-value         = 24.76
 optimisation between [QCUT,QGAM] = [ 11.39, 22.77] = [ 36.31,145.25] Ry 
 Optimized for a Real-space Cutoff    1.00 Angstroem

   l    n(q)    QCUT    max X(q) W(low)/X(q) W(high)/X(q)  e(spline) 
   0      7    11.387    20.381    0.39E-03    0.13E-02    0.15E-06
   0      7    11.387    15.268    0.42E-03    0.14E-02    0.17E-06
   1      6    11.387     5.964    0.41E-03    0.11E-02    0.17E-06
   1      6    11.387     5.382    0.39E-03    0.87E-03    0.15E-06
 Optimization of the real space projectors (new method)

 maximal supplied QI-value         = 19.84
 optimisation between [QCUT,QGAM] = [ 11.31, 22.82] = [ 35.82,145.81] Ry 
 Optimized for a Real-space Cutoff    1.16 Angstroem

   l    n(q)    QCUT    max X(q) W(low)/X(q) W(high)/X(q)  e(spline) 
   0      8    11.310   159.560    0.27E-03    0.30E-03    0.39E-07
   0      8    11.310   115.863    0.27E-03    0.30E-03    0.38E-07
   1      7    11.310    88.339    0.28E-03    0.28E-03    0.77E-07
   1      7    11.310    48.592    0.27E-03    0.27E-03    0.74E-07
 Optimization of the real space projectors (new method)

 maximal supplied QI-value         = 13.61
 optimisation between [QCUT,QGAM] = [ 11.43, 22.86] = [ 36.58,146.31] Ry 
 Optimized for a Real-space Cutoff    1.56 Angstroem

   l    n(q)    QCUT    max X(q) W(low)/X(q) W(high)/X(q)  e(spline) 
   2     10    11.429   130.855    0.22E-03    0.64E-03    0.11E-05
   2     10    11.429   114.007    0.22E-03    0.64E-03    0.11E-05
   0     11    11.429    84.709    0.39E-04    0.67E-04    0.23E-06
   0     11    11.429    49.163    0.35E-04    0.62E-04    0.21E-06
   1     10    11.429    15.765    0.84E-04    0.15E-03    0.24E-06
   1     10    11.429    10.638    0.58E-04    0.12E-03    0.19E-06

 ----------------------------------------------------------------------------- 
|                                                                             |
|  ADVICE TO THIS USER RUNNING 'VASP/VAMP'   (HEAR YOUR MASTER'S VOICE ...):  |
|                                                                             |
|      You enforced a specific xc-type in the INCAR file,                     |
|      a different type was found on the POTCAR file                          |
|          I HOPE YOU KNOW, WHAT YOU ARE  DOING                               |
|                                                                             |
 ----------------------------------------------------------------------------- 

  PAW_PBE C 08Apr2002                   :
 energy of atom  1       EATOM= -147.1560
 kinetic energy error for atom=    0.0076 (will be added to EATOM!!)
  PAW_PBE H 15Jun2001                   :
 energy of atom  2       EATOM=  -12.4884
 kinetic energy error for atom=    0.0020 (will be added to EATOM!!)
  PAW_PBE O 08Apr2002                   :
 energy of atom  3       EATOM= -432.3788
 kinetic energy error for atom=    0.0224 (will be added to EATOM!!)
  PAW_PBE Si 05Jan2001                  :
 energy of atom  4       EATOM= -103.0669
 kinetic energy error for atom=    0.0006 (will be added to EATOM!!)
  PAW_PBE W 08Apr2002                   :
 energy of atom  5       EATOM= -204.6103
 kinetic energy error for atom=    0.0017 (will be added to EATOM!!)


 POSCAR:  C  H  O Si  W                          
  positions in direct lattice
  velocities in cartesian coordinates
 exchange correlation table for  LEXCH =        9
   RHO(1)=    0.500       N(1)  =     2000
   RHO(2)=  100.500       N(2)  =     4000

 VTST: version 3.2, (02/03/18)

 CHAIN: initializing optimizer
 
 OPT: Using LBFGS optimizer
 OPT: LBFGS, Init
 OPT: LBFGS, MEMORY             20
 OPT: LBFGS, IMAGES              8
 OPT: LBFGS, MAXMOVE      0.200000
 OPT: LBFGS, LGLOBAL      T
 OPT: LBFGS, INVCURV      0.010000
 OPT: LBFGS, LLINEOPT      F
 OPT: LBFGS, FDSTEP       0.005000
 OPT: LBFGS, LAUTOSCALE      T
 OPT: LBFGS, DAMPING      2.000000
 
 CHAIN: Read ICHAIN            0
 CHAIN: Running the NEB
 NEB:          SPRING     -5.000000
 NEB:          LCLIMB      T
 NEB:     LTANGENTOLD      F
 NEB:           LDNEB      F
 NEB:        LDNEBORG      F
 NEB:        LNEBCELL      F
 NEB:          EFIRST      0.000000
 NEB:           ELAST      0.000000

 POSCAR:  C  H  O Si  W                          
  positions in cartesian coordinates
  No initial velocities read in

 POSCAR:  C  H  O Si  W                          
  positions in cartesian coordinates
  No initial velocities read in



--------------------------------------------------------------------------------------------------------


 ion  position               nearest neighbor table
   1  0.556  0.557  0.754-  51 1.09  50 1.09   2 1.35
   2  0.515  0.552  0.790-  52 1.09   1 1.35   4 1.50
   3  0.400  0.450  0.688-  53 1.10   5 1.51 279 1.91
   4  0.478  0.615  0.805-  55 1.10  56 1.10  54 1.10   2 1.50
   5  0.370  0.386  0.713-  58 1.10  57 1.10  59 1.11   3 1.51
   6  0.761  0.104  0.651- 134 0.97
   7  0.926  0.279  0.356-  82 0.98
   8  0.793  0.207  0.373- 117 0.97
   9  0.975  0.944  0.325- 126 0.97
  10  0.626  0.963  0.375- 128 0.98
  11  0.821  0.995  0.369- 146 0.97
  12  0.750  0.141  0.458- 184 0.98
  13  0.916  0.249  0.509- 189 0.97
  14  0.583  0.304  0.306- 194 0.97
  15  0.890  0.334  0.616- 100 0.98
  16  0.586  0.357  0.616- 145 0.97
  17  0.594  0.872  0.578- 187 0.99
  18  0.033  0.339  0.651- 193 0.97
  19  0.935  0.420  0.454- 182 0.98
  20  0.746  0.530  0.422-  96 1.00
  21  0.798  0.383  0.635- 174 0.97
  22  0.591  0.569  0.378- 108 0.99
  23  0.718  0.646  0.383- 131 0.99
  24  0.841  0.542  0.420- 137 0.98
  25  0.005  0.604  0.358- 142 0.97
  26  0.828  0.712  0.468- 183 0.99
  27  0.875  0.599  0.722-  62 0.97
  28  0.520  0.986  0.422- 144 0.99
  29  0.223  0.980  0.393- 185 1.00
  30  0.216  0.238  0.319- 200 0.99
  31  0.158  0.330  0.279- 191 0.97
  32  0.342  0.156  0.331- 192 0.98
  33  0.223  0.046  0.323- 199 0.97
  34  0.512  0.825  0.547- 202 0.97
  35  0.396  0.248  0.652-  87 0.97
  36  0.244  0.093  0.599- 138 0.98
  37  0.315  0.487  0.442-  61 0.99
  38  0.409  0.439  0.406- 150 0.98
  39  0.398  0.793  0.389- 188 0.97
  40  0.244  0.655  0.294- 196 0.97
  41  0.312  0.418  0.369- 197 0.98
  42  0.405  0.584  0.339- 198 0.97
  43  0.139  0.488  0.352- 190 0.98
  44  0.593  0.698  0.352-  91 0.97
  45  0.469  0.861  0.444- 201 0.99
  46  0.118  0.322  0.609- 110 0.97
  47  0.071  0.666  0.645- 141 0.97
  48  0.230  0.386  0.683- 186 0.97
  49  0.245  0.815  0.669- 195 0.97
  50  0.585  0.511  0.747-   1 1.09
  51  0.564  0.608  0.734-   1 1.09
  52  0.510  0.500  0.809-   2 1.09
  53  0.373  0.486  0.666-   3 1.10
  54  0.487  0.630  0.844-   4 1.10
  55  0.483  0.663  0.782-   4 1.10
  56  0.432  0.599  0.805-   4 1.10
  57  0.345  0.354  0.685-   5 1.10
  58  0.400  0.349  0.732-   5 1.10
  59  0.338  0.407  0.740-   5 1.11
  60  0.369  0.648  0.439- 233 1.66 268 1.68
  61  0.347  0.504  0.420-  37 0.99 268 1.67
  62  0.861  0.566  0.697-  27 0.97 239 1.64
  63  0.349  0.958  0.531- 244 1.68 277 1.70
  64  0.033  0.933  0.528- 259 1.63 270 1.65
  65  0.636  0.079  0.489- 237 1.60 226 1.65
  66  0.069  0.052  0.395- 225 1.64 217 1.65
  67  0.452  0.130  0.421- 242 1.65 223 1.65
  68  0.806  0.214  0.483- 241 1.67 238 1.69
  69  0.973  0.182  0.599- 219 1.63 249 1.65
  70  0.275  0.299  0.449- 265 1.65 275 1.66
  71  0.556  0.775  0.442- 246 1.51 273 1.66
  72  0.392  0.970  0.620- 263 1.65 277 1.66
  73  0.178  0.350  0.405- 265 1.66 240 1.67
  74  0.867  0.684  0.637- 243 1.64 239 1.65
  75  0.866  0.967  0.467- 235 1.60 250 1.65
  76  0.301  0.761  0.458- 233 1.65 247 1.67
  77  0.422  0.261  0.380- 242 1.67 262 1.67
  78  0.811  0.465  0.520- 269 1.63 216 1.64
  79  0.984  0.073  0.521- 259 1.68 219 1.69
  80  0.515  0.456  0.626- 278 1.66 279 1.96
  81  0.035  0.920  0.429- 270 1.64 217 1.65
  82  0.963  0.303  0.351-   7 0.98 218 1.65
  83  0.070  0.336  0.376- 218 1.64 240 1.65
  84  0.208  0.729  0.395- 247 1.66 257 1.67
  85  0.039  0.419  0.499- 272 1.64 245 1.65
  86  0.237  0.286  0.588- 230 1.63 253 1.63
  87  0.397  0.195  0.645-  35 0.97 224 1.64
  88  0.455  0.561  0.584- 278 1.67 255 1.69
  89  0.910  0.749  0.557- 243 1.64 222 1.65
  90  0.869  0.108  0.442- 250 1.64 238 1.65
  91  0.573  0.667  0.376-  44 0.97 246 1.68
  92  0.142  0.159  0.376- 271 1.65 225 1.65
  93  0.350  0.766  0.607- 215 1.62 256 1.64
  94  0.911  0.845  0.483- 235 1.62 222 1.66
  95  0.061  0.537  0.442- 272 1.66 214 1.67
  96  0.708  0.555  0.420-  20 1.00 228 1.67
  97  0.075  0.817  0.483- 270 1.50 252 1.65
  98  0.700  0.828  0.433- 227 1.53 260 1.65
  99  0.730  0.049  0.543- 226 1.64 261 1.64
 100  0.918  0.302  0.632-  15 0.98 249 1.63
 101  0.735  0.853  0.613- 234 1.66 231 1.68
 102  0.625  0.527  0.486- 236 1.58 228 1.68
 103  0.557  0.630  0.467- 246 1.52 236 1.63
 104  0.426  0.247  0.556- 267 1.68 224 1.68
 105  0.978  0.728  0.477- 252 1.65 222 1.65
 106  0.655  0.595  0.634- 274 1.64 220 1.67
 107  0.397  0.745  0.516- 233 1.66 215 1.67
 108  0.603  0.518  0.386-  22 0.99 228 1.65
 109  0.720  0.631  0.557- 258 1.63 274 1.64
 110  0.142  0.365  0.613-  46 0.97 230 1.64
 111  0.066  0.549  0.542- 272 1.63 276 1.64
 112  0.819  0.885  0.537- 235 1.65 234 1.66
 113  0.828  0.355  0.452- 241 1.65 216 1.65
 114  0.527  0.298  0.532- 267 1.62 248 1.63
 115  0.737  0.499  0.596- 274 1.65 269 1.66
 116  0.557  0.172  0.395- 254 1.59 223 1.64
 117  0.806  0.256  0.383-   8 0.97 241 1.67
 118  0.237  0.953  0.508- 244 1.58 229 1.67
 119  0.693  0.777  0.541- 258 1.63 231 1.64
 120  0.924  0.950  0.553- 259 1.65 235 1.65
 121  0.526  0.318  0.399- 254 1.45 262 1.66
 122  0.468  0.989  0.546- 263 1.69 264 1.70
 123  0.838  0.095  0.540- 238 1.65 261 1.66
 124  0.538  0.116  0.486- 237 1.61 223 1.67
 125  0.350  0.187  0.440- 275 1.63 242 1.65
 126  0.012  0.962  0.335-   9 0.97 217 1.65
 127  0.462  0.588  0.679- 255 1.64 279 2.03
 128  0.655  0.925  0.379-  10 0.98 227 1.66
 129  0.076  0.686  0.436- 214 1.65 252 1.66
 130  0.452  0.404  0.552- 278 1.67 267 1.70
 131  0.719  0.700  0.380-  23 0.99 260 1.65
 132  0.449  0.701  0.603- 215 1.63 255 1.65
 133  0.753  0.709  0.476- 258 1.63 260 1.69
 134  0.779  0.121  0.621-   6 0.97 261 1.64
 135  0.993  0.308  0.448- 245 1.66 218 1.68
 136  0.533  0.508  0.530- 278 1.64 236 1.65
 137  0.817  0.499  0.423-  24 0.98 216 1.69
 138  0.236  0.145  0.605-  36 0.98 253 1.62
 139  0.204  0.831  0.471- 229 1.50 247 1.63
 140  0.240  0.559  0.523- 232 1.65 221 1.66
 141  0.061  0.625  0.624-  47 0.97 276 1.63
 142  0.046  0.602  0.354-  25 0.97 214 1.65
 143  0.801  0.979  0.606- 234 1.66 261 1.68
 144  0.538  0.028  0.405-  28 0.99 223 1.66
 145  0.605  0.313  0.605-  16 0.97 248 1.64
 146  0.862  0.004  0.369-  11 0.97 250 1.66
 147  0.095  0.149  0.467- 251 1.62 225 1.65
 148  0.171  0.203  0.530- 251 1.61 253 1.63
 149  0.641  0.704  0.455- 246 1.65 260 1.66
 150  0.437  0.410  0.386-  38 0.98 262 1.66
 151  0.574  0.058  0.571- 264 1.62 237 1.65
 152  0.151  0.593  0.389- 257 1.68 214 1.68
 153  0.268  0.602  0.392- 268 1.65 257 1.67
 154  0.440  0.322  0.470- 267 1.64 262 1.69
 155  0.238  0.159  0.430- 271 1.65 275 1.67
 156  0.073  0.150  0.563- 251 1.64 219 1.64
 157  0.845  0.544  0.600- 239 1.66 269 1.66
 158  0.621  0.280  0.411- 266 1.65 254 1.66
 159  0.603  0.892  0.467- 273 1.29 227 1.67
 160  0.031  0.195  0.389- 218 1.66 225 1.66
 161  0.608  0.196  0.547- 237 1.62 248 1.64
 162  0.133  0.938  0.479- 270 1.65 229 1.66
 163  0.080  0.280  0.512- 245 1.64 251 1.65
 164  0.372  0.104  0.571- 277 1.63 224 1.69
 165  0.067  0.697  0.536- 252 1.63 276 1.63
 166  0.666  0.415  0.430- 228 1.65 266 1.65
 167  0.800  0.730  0.564- 258 1.61 243 1.63
 168  0.704  0.957  0.470- 226 1.65 227 1.66
 169  0.599  0.633  0.553- 236 1.62 220 1.63
 170  0.723  0.294  0.452- 241 1.63 266 1.64
 171  0.978  0.314  0.547- 245 1.64 249 1.67
 172  0.158  0.630  0.571- 232 1.63 276 1.65
 173  0.633  0.327  0.508- 248 1.63 266 1.65
 174  0.819  0.396  0.605-  21 0.97 269 1.65
 175  0.959  0.027  0.417- 250 1.64 217 1.65
 176  0.282  0.196  0.519- 275 1.63 253 1.65
 177  0.249  0.443  0.461- 221 1.66 265 1.71
 178  0.271  0.850  0.569- 244 1.64 256 1.65
 179  0.204  0.686  0.487- 232 1.63 247 1.66
 180  0.147  0.476  0.493- 221 1.63 272 1.65
 181  0.225  0.424  0.557- 221 1.61 230 1.63
 182  0.911  0.453  0.474-  19 0.98 216 1.65
 183  0.870  0.705  0.464-  26 0.99 222 1.65
 184  0.738  0.093  0.445-  12 0.98 226 1.66
 185  0.222  0.930  0.408-  29 1.00 229 1.64
 186  0.244  0.402  0.651-  48 0.97 230 1.65
 187  0.631  0.884  0.593-  17 0.99 231 1.62
 188  0.410  0.789  0.423-  39 0.97 233 1.68
 189  0.918  0.196  0.508-  13 0.97 238 1.65
 190  0.133  0.444  0.332-  43 0.98 240 1.65
 191  0.155  0.304  0.311-  31 0.97 240 1.69
 192  0.373  0.131  0.348-  32 0.98 242 1.66
 193  0.034  0.292  0.634-  18 0.97 249 1.66
 194  0.573  0.257  0.320-  14 0.97 254 1.66
 195  0.245  0.770  0.650-  49 0.97 256 1.64
 196  0.207  0.648  0.310-  40 0.97 257 1.65
 197  0.275  0.392  0.367-  41 0.98 265 1.66
 198  0.365  0.598  0.342-  42 0.97 268 1.67
 199  0.226  0.056  0.358-  33 0.97 271 1.69
 200  0.241  0.196  0.329-  30 0.99 271 1.66
 201  0.501  0.892  0.455-  45 0.99 273 1.60
 202  0.551  0.828  0.534-  34 0.97 273 1.67
 203  0.546  0.650  0.634- 220 1.64 255 1.67
 204  0.479  0.122  0.595- 264 1.65 224 1.66
 205  0.263  0.694  0.569- 232 1.65 256 1.65
 206  0.444  0.845  0.582- 263 1.66 215 1.69
 207  0.766  0.618  0.649- 274 1.65 239 1.66
 208  0.845  0.832  0.623- 243 1.66 234 1.68
 209  0.641  0.740  0.621- 220 1.67 231 1.70
 210  0.008  0.033  0.603- 259 1.69 219 1.69
 211  0.285  0.001  0.594- 277 1.69 244 1.70
 212  0.504  0.971  0.628- 263 1.69 264 1.70
 213  0.503  0.413  0.730- 279 1.73
 214  0.083  0.606  0.406- 142 1.65 129 1.65  95 1.67 152 1.68 272 3.13
 215  0.410  0.764  0.575-  93 1.62 132 1.63 107 1.67 206 1.69 256 3.07
 216  0.842  0.441  0.468-  78 1.64 113 1.65 182 1.65 137 1.69
 217  0.017  0.990  0.394-  66 1.65 175 1.65  81 1.65 126 1.65 270 3.11 225 3.13
 218  0.015  0.284  0.391-  83 1.64  82 1.65 160 1.66 135 1.68 245 3.11 225 3.11
 219  0.009  0.115  0.573-  69 1.63 156 1.64  79 1.69 210 1.69 259 2.39 251 3.05 249 3.07
 220  0.610  0.658  0.611- 169 1.63 203 1.64 106 1.67 209 1.67 274 2.87
 221  0.214  0.476  0.510- 181 1.61 180 1.63 140 1.66 177 1.66 232 3.10 265 3.14
 222  0.915  0.756  0.496- 105 1.65 183 1.65  89 1.65  94 1.66 235 2.99 243 3.03
 223  0.521  0.110  0.426- 116 1.64  67 1.65 144 1.66 124 1.67 254 3.08 237 3.12
 224  0.419  0.169  0.590-  87 1.64 204 1.66 104 1.68 164 1.69 264 3.15
 225  0.083  0.139  0.407-  66 1.64 147 1.65  92 1.65 160 1.66 218 3.11 217 3.13 271 3.14
 226  0.702  0.045  0.487-  99 1.64 168 1.65  65 1.65 184 1.66 237 3.09 227 3.10
 227  0.665  0.898  0.437-  98 1.53 168 1.66 128 1.66 159 1.67 273 2.83 260 3.06 226 3.10
 228  0.650  0.504  0.430- 108 1.65 166 1.65  96 1.67 102 1.68 236 3.07
 229  0.198  0.912  0.464- 139 1.50 185 1.64 162 1.66 118 1.67 247 3.01 244 3.06 270 3.07
 230  0.211  0.367  0.602-  86 1.63 181 1.63 110 1.64 186 1.65
 231  0.674  0.814  0.595- 187 1.62 119 1.64 101 1.68 209 1.70 258 2.90
 232  0.217  0.642  0.539- 179 1.63 172 1.63 205 1.65 140 1.65 247 3.09 221 3.10 276 3.12
 233  0.369  0.735  0.459-  76 1.65  60 1.66 107 1.66 188 1.68
 234  0.798  0.889  0.596- 143 1.66 101 1.66 112 1.66 208 1.68 243 2.86 235 2.99 261 3.15
 235  0.880  0.912  0.512-  75 1.60  94 1.62 112 1.65 120 1.65 222 2.99 234 2.99 259 3.05 250 3.13

 236  0.576  0.575  0.512- 102 1.58 169 1.62 103 1.63 136 1.65 246 3.00 228 3.07
 237  0.590  0.116  0.525-  65 1.60 124 1.61 161 1.62 151 1.65 264 2.85 226 3.09 248 3.12 223 3.12

 238  0.858  0.152  0.495- 189 1.65  90 1.65 123 1.65  68 1.69 250 3.07 241 3.15
 239  0.836  0.604  0.646-  62 1.64  74 1.65 207 1.66 157 1.66 274 2.93 243 3.01 269 3.01
 240  0.134  0.360  0.357- 190 1.65  83 1.65  73 1.67 191 1.69 265 3.11
 241  0.791  0.280  0.442- 170 1.63 113 1.65 117 1.67  68 1.67 238 3.15
 242  0.399  0.177  0.396-  67 1.65 125 1.65 192 1.66  77 1.67 262 3.07
 243  0.856  0.750  0.597- 167 1.63  89 1.64  74 1.64 208 1.66 234 2.86 239 3.01 222 3.03
 244  0.283  0.934  0.550- 118 1.58 178 1.64  63 1.68 211 1.70 277 2.38 229 3.06
 245  0.023  0.330  0.502- 163 1.64 171 1.64  85 1.65 135 1.66 218 3.11 249 3.11 251 3.13
 246  0.575  0.695  0.436-  71 1.51 103 1.52 149 1.65  91 1.68 236 3.00 273 3.06 260 3.10
 247  0.230  0.753  0.452- 139 1.63 179 1.66  84 1.66  76 1.67 257 2.97 229 3.01 232 3.09
 248  0.594  0.284  0.548- 173 1.63 114 1.63 145 1.64 161 1.64 237 3.12
 249  0.975  0.272  0.603- 100 1.63  69 1.65 193 1.66 171 1.67 219 3.07 245 3.11
 250  0.889  0.025  0.424-  90 1.64 175 1.64  75 1.65 146 1.66 238 3.07 235 3.13
 251  0.105  0.195  0.518- 148 1.61 147 1.62 156 1.64 163 1.65 219 3.05 245 3.13
 252  0.048  0.733  0.483- 165 1.63 105 1.65  97 1.65 129 1.66 270 3.05 276 3.15
 253  0.232  0.206  0.561- 138 1.62  86 1.63 148 1.63 176 1.65 275 3.03
 254  0.561  0.258  0.381- 121 1.45 116 1.59 158 1.66 194 1.66 262 2.87 223 3.08
 255  0.478  0.625  0.625- 127 1.64 132 1.65 203 1.67  88 1.69 278 3.01 279 3.16
 256  0.281  0.770  0.598-  93 1.64 195 1.64 205 1.65 178 1.65 215 3.07
 257  0.209  0.643  0.372- 196 1.65 153 1.67  84 1.67 152 1.68 247 2.97
 258  0.741  0.711  0.536- 167 1.61 109 1.63 133 1.63 119 1.63 231 2.90 260 2.91 274 3.07
 259  0.987  0.991  0.550-  64 1.63 120 1.65  79 1.68 210 1.69 219 2.39 235 3.05
 260  0.703  0.737  0.434-  98 1.65 131 1.65 149 1.66 133 1.69 258 2.91 227 3.06 246 3.10
 261  0.788  0.060  0.577-  99 1.64 134 1.64 123 1.66 143 1.68 234 3.15
 262  0.456  0.328  0.409- 150 1.66 121 1.66  77 1.67 154 1.69 254 2.87 242 3.07
 263  0.450  0.934  0.594-  72 1.65 206 1.66 122 1.69 212 1.69 264 2.37 277 2.75
 264  0.509  0.040  0.586- 151 1.62 204 1.65 122 1.70 212 1.70 263 2.37 237 2.85 224 3.15
 265  0.244  0.370  0.421-  70 1.65  73 1.66 197 1.66 177 1.71 240 3.11 221 3.14
 266  0.659  0.330  0.450- 170 1.64 158 1.65 166 1.65 173 1.65
 267  0.460  0.318  0.529- 114 1.62 154 1.64 104 1.68 130 1.70
 268  0.337  0.590  0.399- 153 1.65 198 1.67  61 1.67  60 1.68
 269  0.803  0.476  0.580-  78 1.63 174 1.65 157 1.66 115 1.66 274 2.91 239 3.01
 270  0.069  0.899  0.481-  97 1.50  81 1.64 162 1.65  64 1.65 252 3.05 229 3.07 217 3.11
 271  0.212  0.144  0.374-  92 1.65 155 1.65 200 1.66 199 1.69 275 3.12 225 3.14
 272  0.078  0.494  0.495- 111 1.63  85 1.64 180 1.65  95 1.66 276 3.09 214 3.13
 273  0.558  0.852  0.475- 159 1.29 201 1.60  71 1.66 202 1.67 227 2.83 246 3.06
 274  0.719  0.585  0.610- 106 1.64 109 1.64 207 1.65 115 1.65 220 2.87 269 2.91 239 2.93 258 3.07

 275  0.287  0.210  0.459- 176 1.63 125 1.63  70 1.66 155 1.67 253 3.03 271 3.12
 276  0.088  0.625  0.568- 165 1.63 141 1.63 111 1.64 172 1.65 272 3.09 232 3.12 252 3.15
 277  0.354  0.018  0.579- 164 1.63  72 1.66 211 1.69  63 1.70 244 2.38 263 2.75
 278  0.486  0.480  0.572- 136 1.64  80 1.66  88 1.67 130 1.67 255 3.01 279 3.18
 279  0.479  0.480  0.690- 213 1.73   3 1.91  80 1.96 127 2.03 255 3.16 278 3.18

  LATTYP: Found a simple orthorhombic cell.
 ALAT       =    18.1212369514
 B/A-ratio  =     1.2919258579
 C/A-ratio  =     1.4835282260
  
  Lattice vectors:
  
 A1 = (   0.0000000000, -18.1212369514,   0.0000000000)
 A2 = ( -23.4112945954,   0.0000000000,   0.0000000000)
 A3 = (   0.0000000000,   0.0000000000, -26.8833665073)


Analysis of symmetry for initial positions (statically):
=====================================================================
 Subroutine PRICEL returns:
 Original cell was already a primitive cell.
 

 Routine SETGRP: Setting up the symmetry group for a 
 simple orthorhombic supercell.


 Subroutine GETGRP returns: Found  1 space group operations
 (whereof  1 operations were pure point group operations)
 out of a pool of  8 trial point group operations.


The static configuration has the point symmetry C_1 .


Analysis of symmetry for dynamics (positions and initial velocities):
=====================================================================
 Subroutine PRICEL returns:
 Original cell was already a primitive cell.
 

 Routine SETGRP: Setting up the symmetry group for a 
 simple orthorhombic supercell.


 Subroutine GETGRP returns: Found  1 space group operations
 (whereof  1 operations were pure point group operations)
 out of a pool of  8 trial point group operations.


The dynamic configuration has the point symmetry C_1 .


Analysis of constrained symmetry for selective dynamics:
=====================================================================
 Subroutine PRICEL returns:
 Original cell was already a primitive cell.
 

 Routine SETGRP: Setting up the symmetry group for a 
 simple orthorhombic supercell.


 Subroutine GETGRP returns: Found  1 space group operations
 (whereof  1 operations were pure point group operations)
 out of a pool of  8 trial point group operations.


The constrained configuration has the point symmetry C_1 .


 Subroutine INISYM returns: Found  1 space group operations
 (whereof  1 operations are pure point group operations),
 and found     1 'primitive' translations



 KPOINTS: KPOINTS created by Atomic Simulation Env

Automatic generation of k-mesh.
Space group operators:
 irot       det(A)        alpha          n_x          n_y          n_z        tau_x        tau_y        tau_z
    1     1.000000     0.000000     1.000000     0.000000     0.000000     0.000000     0.000000     0.000000
 
 Subroutine IBZKPT returns following result:
 ===========================================
 
 Found      5 irreducible k-points:
 
 Following reciprocal coordinates:
            Coordinates               Weight
  0.000000  0.000000  0.000000      1.000000
  0.333333  0.000000  0.000000      2.000000
  0.000000  0.333333  0.000000      2.000000
  0.333333  0.333333  0.000000      2.000000
 -0.333333  0.333333  0.000000      2.000000
 
 Following cartesian coordinates:
            Coordinates               Weight
  0.000000  0.000000  0.000000      1.000000
  0.014238  0.000000  0.000000      2.000000
  0.000000  0.018395  0.000000      2.000000
  0.014238  0.018395  0.000000      2.000000
 -0.014238  0.018395  0.000000      2.000000
 


--------------------------------------------------------------------------------------------------------




 Dimension of arrays:
   k-points           NKPTS =      5   k-points in BZ     NKDIM =      5   number of bands    NBANDS=    772
   number of dos      NEDOS =    301   number of ions     NIONS =    279
   non local maximal  LDIM  =      6   non local SUM 2l+1 LMDIM =     18
   total plane-waves  NPLWV = ******
   max r-space proj   IRMAX =   2748   max aug-charges    IRDMAX=   9808
   dimension x,y,z NGX =   128 NGY =  100 NGZ =  150
   dimension x,y,z NGXF=   256 NGYF=  200 NGZF=  300
   support grid    NGXF=   256 NGYF=  200 NGZF=  300
   ions per type =               5  54 154  65   1
   NGX,Y,Z   is equivalent  to a cutoff of   9.09,  9.17,  9.28 a.u.
   NGXF,Y,Z  is equivalent  to a cutoff of  18.18, 18.35, 18.55 a.u.

 SYSTEM =  unknown system                          
 POSCAR =   C  H  O Si  W                          

 Startparameter for this run:
   NWRITE =      2    write-flag & timer
   PREC   = normal    normal or accurate (medium, high low for compatibility)
   ISTART =      0    job   : 0-new  1-cont  2-samecut
   ICHARG =      2    charge: 1-file 2-atom 10-const
   ISPIN  =      1    spin polarized calculation?
   LNONCOLLINEAR =      F non collinear calculations
   LSORBIT =      F    spin-orbit coupling
   INIWAV =      1    electr: 0-lowe 1-rand  2-diag
   LASPH  =      T    aspherical Exc in radial PAW
   METAGGA=      F    non-selfconsistent MetaGGA calc.

 Electronic Relaxation 1
   ENCUT  =  500.0 eV  36.75 Ry    6.06 a.u.  42.68 33.04 49.01*2*pi/ulx,y,z
   ENINI  =  500.0     initial cutoff
   ENAUG  =  644.9 eV  augmentation charge cutoff
   NELM   =     60;   NELMIN=  2; NELMDL=  0     # of ELM steps 
   EDIFF  = 0.1E-03   stopping-criterion for ELM
   LREAL  =      T    real-space projection
   NLSPLINE    = F    spline interpolate recip. space projectors
   LCOMPAT=      F    compatible to vasp.4.4
   GGA_COMPAT  = T    GGA compatible to vasp.4.4-vasp.4.6
   LMAXPAW     = -100 max onsite density
   LMAXMIX     =    2 max onsite mixed and CHGCAR
   VOSKOWN=      0    Vosko Wilk Nusair interpolation
   ROPT   =   -0.00050  -0.00050  -0.00050  -0.00050
   ROPT   =   -0.00050
 Ionic relaxation
   EDIFFG = -.5E-01   stopping-criterion for IOM
   NSW    =    500    number of steps for IOM
   NBLOCK =      1;   KBLOCK =    500    inner block; outer block 
   IBRION =      3    ionic relax: 0-MD 1-quasi-New 2-CG
   NFREE  =      0    steps in history (QN), initial steepest desc. (CG)
   ISIF   =      0    stress and relaxation
   IWAVPR =     11    prediction:  0-non 1-charg 2-wave 3-comb
   ISYM   =      2    0-nonsym 1-usesym 2-fastsym
   LCORR  =      T    Harris-Foulkes like correction to forces

   POTIM  = 0.0000    time-step for ionic-motion
   TEIN   =    0.0    initial temperature
   TEBEG  =    0.0;   TEEND  =   0.0 temperature during run
   SMASS  =  -3.00    Nose mass-parameter (am)
   estimated Nose-frequenzy (Omega)   =  0.10E-29 period in steps =  0.00 mass=  -0.125E-25a.u.
   SCALEE = 1.0000    scale energy and forces
   NPACO  =    256;   APACO  = 16.0  distance and # of slots for P.C.
   PSTRESS=    0.0 pullay stress

  Mass of Ions in am
   POMASS =  12.01  1.00 16.00 28.09183.85
  Ionic Valenz
   ZVAL   =   4.00  1.00  6.00  4.00  6.00
  Atomic Wigner-Seitz radii
   RWIGS  =  -1.00 -1.00 -1.00 -1.00 -1.00
  virtual crystal weights 
   VCA    =   1.00  1.00  1.00  1.00  1.00
   NELECT =    1264.0000    total number of electrons
   NUPDOWN=      -1.0000    fix difference up-down

 DOS related values:
   EMIN   =  10.00;   EMAX   =-10.00  energy-range for DOS
   EFERMI =   0.00
   ISMEAR =     0;   SIGMA  =   0.20  broadening in eV -4-tet -1-fermi 0-gaus

 Electronic relaxation 2 (details)
   IALGO  =     68    algorithm
   LDIAG  =      T    sub-space diagonalisation (order eigenvalues)
   LSUBROT=      F    optimize rotation matrix (better conditioning)
   TURBO    =      0    0=normal 1=particle mesh
   IRESTART =      0    0=no restart 2=restart with 2 vectors
   NREBOOT  =      0    no. of reboots
   NMIN     =      0    reboot dimension
   EREF     =   0.00    reference energy to select bands
   IMIX   =      4    mixing-type and parameters
     AMIX     =   0.40;   BMIX     =  1.00
     AMIX_MAG =   1.60;   BMIX_MAG =  1.00
     AMIN     =   0.10
     WC   =   100.;   INIMIX=   1;  MIXPRE=   1;  MAXMIX= -45

 Intra band minimization:
   WEIMIN = 0.0010     energy-eigenvalue tresh-hold
   EBREAK =  0.32E-07  absolut break condition
   DEPER  =   0.30     relativ break condition  

   TIME   =   0.40     timestep for ELM

  volume/ion in A,a.u.               =      40.88       275.86
  Fermi-wavevector in a.u.,A,eV,Ry     =   0.786366  1.486017  8.413461  0.618372
  Thomas-Fermi vector in A             =   1.890890

 Write flags
   LWAVE        =      F    write WAVECAR
   LDOWNSAMPLE  =      F    k-point downsampling of WAVECAR
   LCHARG       =      F    write CHGCAR
   LVTOT        =      F    write LOCPOT, total local potential
   LVHAR        =      F    write LOCPOT, Hartree potential only
   LELF         =      F    write electronic localiz. function (ELF)
   LORBIT       =      0    0 simple, 1 ext, 2 COOP (PROOUT), +10 PAW based schemes


 Dipole corrections
   LMONO  =      F    monopole corrections only (constant potential shift)
   LDIPOL =      T    correct potential (dipole corrections)
   IDIPOL =      3    1-x, 2-y, 3-z, 4-all directions 
   EPSILON=  1.0000000 bulk dielectric constant

 Exchange correlation treatment:
   GGA     =    RP    GGA type
   LEXCH   =     9    internal setting for exchange type
   VOSKOWN=      0    Vosko Wilk Nusair interpolation
   LHFCALC =     F    Hartree Fock is set to
   LHFONE  =     F    Hartree Fock one center treatment
   AEXX    =    0.0000 exact exchange contribution

 Linear response parameters
   LEPSILON=     F    determine dielectric tensor
   LRPA    =     F    only Hartree local field effects (RPA)
   LNABLA  =     F    use nabla operator in PAW spheres
   LVEL    =     F    velocity operator in full k-point grid
   LINTERFAST=   F  fast interpolation
   KINTER  =     0    interpolate to denser k-point grid
   CSHIFT  =0.1000    complex shift for real part using Kramers Kronig
   OMEGAMAX=  -1.0    maximum frequency
   DEG_THRESHOLD= 0.2000000E-02 threshold for treating states as degnerate
   RTIME   =   -0.100 relaxation time in fs
  (WPLASMAI=    0.000 imaginary part of plasma frequency in eV, 0.658/RTIME)
   DFIELD  = 0.0000000 0.0000000 0.0000000 field for delta impulse in time

 Orbital magnetization related:
   ORBITALMAG=     F  switch on orbital magnetization
   LCHIMAG   =     F  perturbation theory with respect to B field
   DQ        =  0.001000  dq finite difference perturbation B field
   LLRAUG    =     F  two centre corrections for induced B field



--------------------------------------------------------------------------------------------------------


 quickmin algorithm: (dynamic with friction)
   using selective dynamics as specified on POSCAR
 charge density and potential will be updated during run
 non-spin polarized calculation
 RMM-DIIS sequential band-by-band and
  variant of blocked Davidson during initial phase
 perform sub-space diagonalisation
    before iterative eigenvector-optimisation
 modified Broyden-mixing scheme, WC =      100.0
 initial mixing is a Kerker type mixing with AMIX =  0.4000 and BMIX =      1.0000
 Hartree-type preconditioning will be used
 using additional bands          140
 real space projection scheme for non local part
 use partial core corrections
 calculate Harris-corrections to forces   (improved forces if not selfconsistent)
 use gradient corrections 
 use of overlap-Matrix (Vanderbilt PP)
 Gauss-broadening in eV      SIGMA  =   0.20


--------------------------------------------------------------------------------------------------------


  energy-cutoff  :      500.00
  volume of cell :    11405.04
      direct lattice vectors                 reciprocal lattice vectors
    23.411294595  0.000000000  0.000000000     0.042714426  0.000000000  0.000000000
     0.000000000 18.121236951  0.000000000     0.000000000  0.055183871  0.000000000
     0.000000000  0.000000000 26.883366507     0.000000000  0.000000000  0.037197722

  length of vectors
    23.411294595 18.121236951 26.883366507     0.042714426  0.055183871  0.037197722



 k-points in units of 2pi/SCALE and weight: KPOINTS created by Atomic Simulation Env
   0.00000000  0.00000000  0.00000000       0.111
   0.01423814  0.00000000  0.00000000       0.222
   0.00000000  0.01839462  0.00000000       0.222
   0.01423814  0.01839462  0.00000000       0.222
  -0.01423814  0.01839462  0.00000000       0.222

 k-points in reciprocal lattice and weights: KPOINTS created by Atomic Simulation Env
   0.00000000  0.00000000  0.00000000       0.111
   0.33333333  0.00000000  0.00000000       0.222
   0.00000000  0.33333333  0.00000000       0.222
   0.33333333  0.33333333  0.00000000       0.222
  -0.33333333  0.33333333  0.00000000       0.222

 position of ions in fractional coordinates (direct lattice) 
   0.55618282  0.55683291  0.75410211
   0.51539256  0.55220154  0.78972327
   0.40044316  0.44950254  0.68834931
   0.47750700  0.61488248  0.80548102
   0.36983069  0.38585141  0.71257339
   0.76085875  0.10378673  0.65114830
   0.92642768  0.27866896  0.35633493
   0.79333970  0.20727890  0.37345652
   0.97453911  0.94360860  0.32530279
   0.62573266  0.96347285  0.37523120
   0.82053840  0.99500666  0.36899263
   0.74999307  0.14117876  0.45803819
   0.91555685  0.24948339  0.50854586
   0.58349286  0.30426355  0.30592717
   0.89045119  0.33433553  0.61566068
   0.58553721  0.35725808  0.61566040
   0.59402525  0.87163324  0.57802214
   0.03330988  0.33941175  0.65090376
   0.93527051  0.41951423  0.45410146
   0.74613838  0.53031199  0.42248819
   0.79832451  0.38279931  0.63523027
   0.59110202  0.56868283  0.37803474
   0.71843379  0.64593279  0.38346059
   0.84115291  0.54242660  0.41959617
   0.00476455  0.60379815  0.35777830
   0.82835870  0.71235667  0.46794226
   0.87492921  0.59867831  0.72237097
   0.51999031  0.98556476  0.42170307
   0.22309457  0.98015484  0.39320502
   0.21637369  0.23785146  0.31923033
   0.15750105  0.32980623  0.27898292
   0.34154688  0.15558571  0.33077276
   0.22271586  0.04575893  0.32273843
   0.51187956  0.82461431  0.54697212
   0.39566570  0.24759340  0.65173254
   0.24435922  0.09335924  0.59872656
   0.31538097  0.48713646  0.44243467
   0.40895618  0.43873486  0.40569060
   0.39849950  0.79311361  0.38878680
   0.24420236  0.65543008  0.29432688
   0.31174138  0.41847571  0.36925764
   0.40547429  0.58427965  0.33881989
   0.13935762  0.48797365  0.35192946
   0.59326935  0.69798713  0.35239799
   0.46900683  0.86142747  0.44382838
   0.11812604  0.32167077  0.60856514
   0.07075250  0.66646871  0.64511820
   0.23015537  0.38582538  0.68268569
   0.24548159  0.81471137  0.66941760
   0.58491139  0.51059762  0.74674305
   0.56354900  0.60796169  0.73365220
   0.50999390  0.49963901  0.80922323
   0.37307042  0.48648755  0.66607946
   0.48747022  0.63025865  0.84426313
   0.48337003  0.66344904  0.78158878
   0.43218898  0.59857992  0.80483557
   0.34484466  0.35436018  0.68496136
   0.39958403  0.34922669  0.73233215
   0.33832124  0.40706851  0.73969651
   0.36894173  0.64835510  0.43900002
   0.34681565  0.50403387  0.42038813
   0.86077269  0.56597045  0.69668953
   0.34863249  0.95802547  0.53101893
   0.03344239  0.93263838  0.52847486
   0.63635548  0.07886855  0.48937667
   0.06864615  0.05226542  0.39511073
   0.45189954  0.12956232  0.42059728
   0.80588415  0.21365018  0.48316661
   0.97296891  0.18150486  0.59894220
   0.27476529  0.29917287  0.44851223
   0.55635417  0.77509129  0.44175101
   0.39237094  0.97006810  0.61989468
   0.17751724  0.34996845  0.40527312
   0.86698569  0.68415318  0.63715921
   0.86569601  0.96717693  0.46703846
   0.30104714  0.76093683  0.45792526
   0.42161095  0.26125222  0.37959630
   0.81124334  0.46544448  0.52016156
   0.98354002  0.07282164  0.52123374
   0.51493500  0.45568876  0.62599257
   0.03453641  0.91994776  0.42940526
   0.96303654  0.30319531  0.35125762
   0.06962669  0.33610577  0.37637178
   0.20829566  0.72864429  0.39536010
   0.03890126  0.41910192  0.49910875
   0.23718524  0.28627965  0.58771659
   0.39702209  0.19511435  0.64494946
   0.45532661  0.56060772  0.58400343
   0.91007960  0.74928681  0.55748464
   0.86912727  0.10804334  0.44227833
   0.57257679  0.66733185  0.37613173
   0.14242656  0.15912550  0.37597224
   0.35024132  0.76627736  0.60661655
   0.91099605  0.84504757  0.48317962
   0.06133801  0.53687171  0.44225348
   0.70833903  0.55516655  0.41995768
   0.07548726  0.81680680  0.48299416
   0.70046477  0.82755571  0.43263529
   0.73028964  0.04916772  0.54294724
   0.91803264  0.30177248  0.63175859
   0.73541850  0.85340828  0.61295101
   0.62512195  0.52739400  0.48637871
   0.55657330  0.62970304  0.46724942
   0.42594454  0.24694323  0.55597526
   0.97829009  0.72824363  0.47679564
   0.65465449  0.59504240  0.63375591
   0.39713428  0.74547124  0.51556762
   0.60269007  0.51766545  0.38567099
   0.72005900  0.63135444  0.55706664
   0.14181310  0.36517654  0.61323908
   0.06633741  0.54854696  0.54191868
   0.81894947  0.88474604  0.53664898
   0.82821553  0.35538514  0.45190334
   0.52734811  0.29845819  0.53198554
   0.73701328  0.49949386  0.59559385
   0.55743394  0.17243111  0.39490854
   0.80596408  0.25641257  0.38329286
   0.23744622  0.95325075  0.50791956
   0.69321659  0.77672937  0.54144889
   0.92388985  0.94981743  0.55291244
   0.52573722  0.31778112  0.39855594
   0.46839841  0.98934550  0.54609479
   0.83777166  0.09497776  0.53981040
   0.53790325  0.11641749  0.48623709
   0.35019344  0.18660873  0.43963639
   0.01176032  0.96241390  0.33524376
   0.46249893  0.58847042  0.67887039
   0.65496522  0.92539750  0.37922825
   0.07629334  0.68602626  0.43588102
   0.45156821  0.40439331  0.55194140
   0.71921944  0.70042085  0.37958300
   0.44870823  0.70130208  0.60262423
   0.75255106  0.70932458  0.47629548
   0.77858060  0.12119018  0.62075589
   0.99327462  0.30801347  0.44840298
   0.53269076  0.50849020  0.53024296
   0.81677759  0.49906173  0.42344221
   0.23572860  0.14520033  0.60532557
   0.20353331  0.83070132  0.47053363
   0.24004140  0.55905195  0.52260639
   0.06111920  0.62536584  0.62365569
   0.04607407  0.60234669  0.35417863
   0.80097077  0.97894474  0.60574931
   0.53799091  0.02769749  0.40450275
   0.60507793  0.31255072  0.60513907
   0.86154611  0.00408085  0.36920633
   0.09491131  0.14902284  0.46708233
   0.17143913  0.20307896  0.53049602
   0.64098865  0.70443872  0.45481558
   0.43678778  0.40976848  0.38641325
   0.57446835  0.05807118  0.57083597
   0.15143775  0.59340802  0.38895836
   0.26773979  0.60233753  0.39230630
   0.44025846  0.32219818  0.47032443
   0.23800967  0.15851113  0.42990119
   0.07266955  0.15037203  0.56261329
   0.84532945  0.54387996  0.59993121
   0.62117943  0.27993988  0.41090545
   0.60266699  0.89152667  0.46722346
   0.03138539  0.19528983  0.38899188
   0.60776970  0.19560456  0.54718299
   0.13279973  0.93835464  0.47948708
   0.08025959  0.28032635  0.51155390
   0.37237954  0.10367375  0.57113235
   0.06684183  0.69692021  0.53562070
   0.66648838  0.41538488  0.43001156
   0.79962263  0.72993284  0.56404122
   0.70383856  0.95720843  0.47018456
   0.59870698  0.63320281  0.55323929
   0.72284030  0.29368465  0.45166811
   0.97753277  0.31418430  0.54721071
   0.15838793  0.62970457  0.57065089
   0.63333384  0.32678308  0.50780070
   0.81944395  0.39611931  0.60548351
   0.95857820  0.02724304  0.41695300
   0.28211168  0.19570668  0.51875822
   0.24925755  0.44303289  0.46105570
   0.27143062  0.84960842  0.56877582
   0.20366815  0.68557317  0.48688872
   0.14712345  0.47606988  0.49254493
   0.22526847  0.42371960  0.55677875
   0.91141698  0.45274460  0.47371881
   0.86978818  0.70456011  0.46415352
   0.73812021  0.09283462  0.44522965
   0.22218344  0.92978119  0.40794682
   0.24417085  0.40178304  0.65053377
   0.63110713  0.88395577  0.59330025
   0.41022327  0.78906239  0.42343739
   0.91777135  0.19603829  0.50824515
   0.13254706  0.44353611  0.33227266
   0.15514768  0.30352326  0.31056042
   0.37300515  0.13090704  0.34795342
   0.03365910  0.29223104  0.63378746
   0.57268926  0.25686819  0.32009968
   0.24494247  0.76964803  0.64994824
   0.20737430  0.64840505  0.31036906
   0.27537441  0.39219130  0.36737583
   0.36535081  0.59758663  0.34222079
   0.22638085  0.05618082  0.35811888
   0.24120333  0.19607823  0.32934297
   0.50127293  0.89230162  0.45484168
   0.55070019  0.82784803  0.53431956
   0.54588803  0.64953520  0.63425868
   0.47903938  0.12179126  0.59527544
   0.26266320  0.69407153  0.56856415
   0.44396169  0.84511682  0.58173678
   0.76604630  0.61750635  0.64933452
   0.84513687  0.83193909  0.62295519
   0.64063821  0.74023006  0.62099702
   0.00815873  0.03348376  0.60298849
   0.28454946  0.00096581  0.59449400
   0.50391699  0.97131756  0.62835147
   0.50297303  0.41281837  0.73027609
   0.08322528  0.60642030  0.40641308
   0.40951910  0.76356467  0.57534951
   0.84176382  0.44145312  0.46783897
   0.01708949  0.99048204  0.39361135
   0.01470021  0.28419027  0.39108141
   0.00913574  0.11515066  0.57257357
   0.61005121  0.65828788  0.61080733
   0.21400739  0.47631874  0.50954792
   0.91506213  0.75556094  0.49625454
   0.52057854  0.11045563  0.42598659
   0.41887244  0.16916860  0.58970562
   0.08345253  0.13917208  0.40698087
   0.70189793  0.04484625  0.48732303
   0.66505935  0.89803746  0.43747644
   0.65009874  0.50402706  0.43015089
   0.19846065  0.91248223  0.46399069
   0.21066895  0.36668931  0.60208835
   0.67405972  0.81408727  0.59462439
   0.21667802  0.64171502  0.53853943
   0.36878912  0.73512773  0.45920930
   0.79774586  0.88875175  0.59569317
   0.87984075  0.91229062  0.51198169
   0.57633749  0.57455133  0.51192774
   0.58991007  0.11552805  0.52520324
   0.85812234  0.15211323  0.49517595
   0.83586062  0.60371918  0.64581027
   0.13373852  0.36031890  0.35687228
   0.79065529  0.27993925  0.44187265
   0.39917610  0.17749484  0.39600320
   0.85625010  0.75028322  0.59652486
   0.28267410  0.93440176  0.54989120
   0.02307473  0.33044751  0.50224551
   0.57455938  0.69549008  0.43556436
   0.23024095  0.75260050  0.45196954
   0.59355244  0.28407634  0.54822333
   0.97456050  0.27233593  0.60262081
   0.88890636  0.02540900  0.42420019
   0.10461562  0.19537219  0.51773540
   0.04814566  0.73303709  0.48263019
   0.23168047  0.20577944  0.56100320
   0.56140781  0.25778527  0.38122611
   0.47779479  0.62531317  0.62488954
   0.28114772  0.77037330  0.59777448
   0.20850083  0.64339984  0.37179454
   0.74059484  0.71103641  0.53586805
   0.98658014  0.99069165  0.55035542
   0.70310456  0.73681815  0.43426040
   0.78794821  0.05958107  0.57680775
   0.45631390  0.32845159  0.40928789
   0.45034621  0.93440998  0.59437580
   0.50879919  0.04030557  0.58568114
   0.24424715  0.37040632  0.42094710
   0.65852534  0.33000211  0.45034791
   0.46011305  0.31796920  0.52884092
   0.33729937  0.58994254  0.39908301
   0.80330384  0.47646398  0.57984406
   0.06920979  0.89885916  0.48050551
   0.21190758  0.14445432  0.37359659
   0.07823286  0.49398499  0.49468762
   0.55757019  0.85234010  0.47473025
   0.71869456  0.58510594  0.60969466
   0.28664212  0.21010174  0.45911077
   0.08818205  0.62547508  0.56762483
   0.35362513  0.01764973  0.57943502
   0.48644847  0.47956644  0.57165313
   0.47856369  0.47983751  0.68979118

 position of ions in cartesian coordinates  (Angst):
  13.02095976 10.09050114 20.27280348
  12.06600714 10.00657500 21.23042001
   9.37489284  8.14554196 18.50514673
  11.17905710 11.14243116 21.65404144
   8.65821527  6.99210490 19.15637153
  17.81268825  1.88074394 17.50505832
  21.68887124  5.04982630  9.57948250
  18.57310935  3.75615001 10.03976840
  22.81522226 17.09935504  8.74523415
  14.64921175 17.45931981 10.08747787
  19.20986618 18.03075152  9.91976410
  17.55830880  2.55833368 12.31360861
  21.43437112  4.52094755 13.67142472
  13.66032332  5.51363181  8.22435231
  20.84661513  6.05857336 16.55103179
  13.70818417  6.47395825 16.55102424
  13.90690007 15.79507247 15.53918113
   0.77982750  6.15056083 17.49848423
  21.89589338  7.60211669 12.20777585
  17.46806539  9.60990927 11.35790489
  18.68981035  6.93679691 17.07712804
  13.83846346 10.30523625 10.16284657
  16.81946503 11.70510106 10.30871170
  19.69247867  9.82944087 11.28015755
   0.11154425 10.94156933  9.61828518
  19.39294954 12.90878407 12.57986315
  20.48322537 10.84879152 19.41976350
  12.17364643 17.85965257 11.33679820
   5.22293275 17.76161801 10.57067472
   5.06558822  4.31016263  8.58198589
   3.68730349  5.97649684  7.50000000
   7.99605454  2.81940543  8.89228530
   5.21406665  0.82920834  8.67629559
  11.98376307 14.94303122 14.70445188
   9.26304615  4.48669860 17.52076474
   5.72076577  1.69178492 16.09578543
   7.38347683  8.82751530 11.89413327
   9.57419369  7.95041833 10.90632902
   9.32938926 14.37219961 10.45189795
   5.71709332 11.87720376  7.91249741
   7.29826932  7.58329756  9.92688859
   9.49267817 10.58787004  9.10861924
   3.26254231  8.84268607  9.46104865
  13.88920341 12.64839014  9.47364424
  10.98005707 15.61013128 11.93160111
   2.76548353  5.82907221 16.36027960
   1.65640755 12.07723733 17.34294896
   5.38823513  6.99163307 18.35288951
   5.74704183 14.76357780 17.99619855
  13.69353282  9.25266053 20.07496715
  13.19341175 11.01701792 19.72304096
  11.93961741  9.05407684 21.75464456
   8.73406162  8.81575625 17.90645820
  11.41230904 11.42106633 22.69663525
  11.31631816 12.02251730 21.01173767
  10.11810343 10.84700861 21.63668948
   8.07325989  6.42144474 18.41406719
   9.35477940  6.32841953 19.68755348
   7.92053832  7.37658500 19.88553245
   8.63740362 11.74899635 11.80179838
   8.11940335  9.13371715 11.30144811
  20.15180299 10.25608461 18.72935990
   8.16193782 17.36060651 14.27557649
   0.78292965 16.90056101 14.20718348
  14.89790566  1.42919560 13.15609244
   1.60709516  0.94711408 10.62190669
  10.57955331  2.34782959 11.30707087
  18.86679123  3.87160553 12.98914499
  22.77846175  3.28909264 16.10158271
   6.43261122  5.42138248 12.05751853
  13.02497128 14.04561294 11.87575437
   9.18591163 17.57883391 16.66485589
   4.15590840  6.34186119 10.89510594
  20.29725751 12.39770180 17.12898444
  20.26706432 17.52644236 12.55556607
   7.04790320 13.78911669 12.31057251
   9.87045805  4.73421333 10.20482654
  18.99225689  8.43442963 13.98369397
  23.02594524  1.31961819 14.01251761
  12.05529487  8.25764391 16.82878778
   0.80854198 16.67059137 11.54385891
  22.54593219  5.49427402  9.44298747
   1.63005096  6.09065222 10.11814055
   4.87647100 13.20393591 10.62861051
   0.91072893  7.59464512 13.41772355
   5.55281356  5.18774131 15.79980061
   9.29480112  3.53571328 17.33841270
  10.65978536 10.15890537 15.69997817
  21.30614169 13.57800378 14.98706402
  20.34739459  1.95787901 11.88993046
  13.40476402 12.09287863 10.11168720
   3.33439013  2.88355087 10.10739962
   8.19960278 13.88589360 16.30789510
  21.32759690 15.31330727 12.98949491
   1.43600223  9.72877939 11.88926245
  16.58313365 10.06030463 11.28987623
   1.76725442 14.80154965 12.98450890
  16.39878711 14.99633320 11.63069310
  17.09702599  0.89097999 14.59624966
  21.49233250  5.46849057 16.98379771
  17.21709905 15.46481374 16.47818664
  14.63491423  9.55703168 13.07549710
  13.03010146 11.41099800 12.56123752
   9.97191321  4.47491679 14.94648676
  22.90303759 13.19667544 12.81787194
  15.32630916 10.78290430 17.03749231
   9.29742755 13.50886105 13.86019324
  14.10975474  9.38073831 10.36813464
  16.85751334 11.44092349 14.97582676
   3.32002834  6.61745063 16.48593098
   1.55304472  9.94034945 14.56859839
  19.17266719 16.03269266 14.42693134
  19.38959778  6.44001838 12.14868300
  12.34590197  5.40843152 14.30156236
  17.25443497  9.05144653 16.01156772
  13.05025009  3.12466491 10.61647095
  18.86866258  4.64651294 10.30420244
   5.55892333 17.27408272 13.65458756
  16.22909772 14.07529692 14.55596886
  21.62945743 17.21186667 14.86414774
  12.30818899  5.75858696 10.71452528
  10.96581322 17.92816425 14.68086638
  19.61331921  1.72111451 14.51192072
  12.59301152  2.10962891 13.07168996
   8.19848185  3.38158105 11.81890631
   0.27532438 17.44013032  9.01248080
  10.82769869 10.66381192 18.25032156
  15.33358375 16.76934745 10.19493214
   1.78612593 12.43164436 11.71794928
  10.57179639  7.32810692 14.83804305
  16.83785811 12.69249221 10.20446890
  10.50484058 12.70846110 16.20056796
  17.61819454 12.85383870 12.80442605
  18.22757985  2.19611590 16.68800813
  23.25384464  5.58158513 12.05458163
  12.47098042  9.21447133 14.25471579
  19.12182067  9.04361594 11.38355200
   5.51871170  2.63120961 16.27318920
   4.76497818 15.05333538 12.64952801
   5.61967994 10.13071284 14.04941914
   1.43087964 11.33240265 16.76596450
   1.07865368 10.91526713  9.52151395
  18.75176266 17.73968963 16.28458077
  12.59506368  0.50191281 10.87439573
  14.16565763  5.66380566 16.26817538
  20.16990973  0.07395004  9.92550906
   2.22199659  2.70047811 12.55674536
   4.01361190  3.68004199 14.26151895
  15.00637423 12.76530096 12.22697399
  10.22576747  7.42551173 10.38808912
  13.44904773  1.05232155 15.34599260
   3.54535369 10.75328740 10.45651017
   6.26813510 10.91510113 10.54651395
  10.30702050  5.83862960 12.64390410
   5.57211440  2.87241773 11.55719116
   1.70128823  2.72492711 15.12493923
  19.79025687  9.85577771 16.12817051
  14.54261459  5.07285683 11.04652184
  14.10921452 16.15556596 12.56053950
   0.73477264  3.53889327 10.45741115
  14.22867544  3.54459664 14.71012082
   3.10901351 17.00414686 12.89022683
   1.87898084  5.07986023 13.75229094
   8.71788704  1.87869652 15.35396029
   1.56485382 12.62905629 14.39928749
  15.60335581  7.52728779 11.56015827
  18.72020097 13.22728590 15.16332682
  16.47777184 17.34580083 12.64014391
  14.01650549 11.47441817 14.87293463
  16.92262720  5.32192920 12.14235921
  22.88530762  5.69340820 14.71086609
   3.70806646 11.41102572 15.34101700
  14.82716522  5.92171361 13.65139239
  19.18424372  7.17817195 16.27743516
  22.44155659  0.49367766 11.20910044
   6.60459973  3.54644712 13.94596747
   5.83544193  8.02830396 12.39472924
   6.35454215 15.39595547 15.29060892
   4.76813504 12.42343385 13.08920785
   3.44435051  8.62697504 13.24126574
   5.27382652  7.67832319 14.96808724
  21.33745138  8.20429214 12.73515651
  20.36286723 12.76750071 12.47800922
  17.28034963  1.68227812 11.96927179
   5.20160188 16.84878525 10.96698378
   5.71635565  7.28080570 17.48853765
  14.77503483 16.01837203 15.94990805
   9.60385771 14.29878657 11.38342242
  21.48621551  3.55245637 13.66334053
   3.10309823  8.03742301  8.93260776
   3.63220806  5.50021683  8.34890949
   8.73253334  2.37219755  9.35415932
   0.78800318  5.29558793 17.03834053
  13.40739699  4.65476936  8.60535697
   5.73442029 13.94697433 17.47279669
   4.85490080 11.74990154  8.34376522
   6.44687148  7.10699146  9.87629901
   8.55333550 10.82900896  9.20004704
   5.29986877  1.01806602  9.62744117
   5.64688233  3.55318002  8.85384768
  11.73544815 16.16960912 12.22767567
  12.89260442 15.00163023 14.36430852
  12.77994556 11.77038120 17.05100847
  11.21493200  2.20700833 16.00300779
   6.14928560 12.57743461 15.28491849
  10.39371790 15.31456206 15.63904319
  17.93413561 11.18997892 17.45629793
  19.78574832 15.07576544 16.74713273
  14.99816979 13.41388436 16.69449049
   0.19100634  0.60676707 16.21036064
   6.66167126  0.01750172 15.98200005
  11.79734921 17.60147573 16.89220278
  11.77524982  7.48077944 19.63227970
   1.94841153 10.98908596 10.92575188
   9.58737239 13.83673635 15.46733165
  19.70678074  7.99967650 12.57708649
   0.40008717 17.94875972 10.58159830
   0.34415087  5.14987929 10.51358498
   0.21387949  2.08667234 15.39270509
  14.28208863 11.92899062 16.42055740
   5.01019008  8.63148482 13.69836353
  21.42278905 13.69169878 13.34099278
  12.18741762  2.00159257 11.45195358
   9.80634613  3.06554431 15.85327239
   1.95373172  2.52197018 10.94101594
  16.43233932  0.81266960 13.10088356
  15.56990047 16.27354966 11.76083937
  15.21965321  9.13359373 11.56390395
   4.64622068 16.53530673 12.47363180
   4.93203297  6.64486381 16.18616179
  15.78061059 14.75226823 15.98550553
   5.07271299 11.62866991 14.47775295
   8.63383069 13.32142384 12.34509184
  18.67626342 16.10528114 16.01423776
  20.59821097 16.53183445 13.76379151
  13.49280679 10.41158081 13.76234110
  13.81055842  2.09351121 14.11923118
  20.08975493  2.75647992 13.31199648
  19.56857933 10.94013837 17.36155409
   3.13099191  6.52942423  9.59392828
  18.51026388  5.07284540 11.87902451
   9.34522920  3.21642612 10.64589911
  20.04592343 13.59606010 16.03659645
   6.61776671 16.93251569 14.78292664
   0.54020935  5.98811771 13.50205012
  13.45117902 12.60314055 11.70943634
   5.39023881 13.63805192 12.15046292
  13.89583114  5.14781462 14.73808860
  22.81572286  4.93506393 16.20047618
  20.81044864  0.46044249 11.40392910
   2.44918711  3.54038567 13.91847054
   1.12715225 13.28353886 12.97472440
   5.42393966  3.72897798 15.08165477
  13.14328356  4.67138795 10.24864117
  11.18579452 11.33144819 16.79913446
   6.58203221 13.96011719 16.07019033
   4.88127424 11.65920103  9.99508876
  17.33828389 12.88485921 14.40593719
  23.09711827 17.95255810 14.79540644
  16.46058793 13.35205634 11.67438144
  18.44688761  1.07968261 15.50653422
  10.68289909  5.95194918 11.00303640
  10.54318771 16.93266467 15.97882247
  11.91164784  0.73038676 15.74508087
   5.71814202  6.71222076 11.31647527
  15.41693082  5.98004644 12.10686792
  10.77184211  5.76199526 14.21702423
   7.89661487 10.69048858 10.72869482
  18.80638288  8.63411666 15.58816040
   1.62029077 16.28843974 12.91760565
   4.96103075  2.61769098 10.04353415
   1.83153245  8.95161914 13.29886860
  13.05343995 15.44545689 12.76234739
  16.82557017 10.60284331 16.39064511
   6.71066321  3.80730338 12.34244318
   2.06445606 11.33438220 15.25966631
   8.27882204  0.31983500 15.57716397
  11.38838841  8.69033717 15.36796049
  11.20379544  8.69524919 18.54390922



--------------------------------------------------------------------------------------------------------


 k-point  1 :   0.0000 0.0000 0.0000  plane waves:  289505
 k-point  2 :   0.3333 0.0000 0.0000  plane waves:  289422
 k-point  3 :   0.0000 0.3333 0.0000  plane waves:  289550
 k-point  4 :   0.3333 0.3333 0.0000  plane waves:  289551
 k-point  5 :  -0.3333 0.3333 0.0000  plane waves:  289551

 maximum and minimum number of plane-waves per node :     72451    72309

 maximum number of plane-waves:    289551
 maximum index in each direction: 
   IXMAX=   43   IYMAX=   33   IZMAX=   49
   IXMIN=  -43   IYMIN=  -33   IZMIN=  -49


 real space projection operators:
  total allocation   :      13910.17 KBytes
  max/ min on nodes  :       3480.95       3474.15


 parallel 3D FFT for wavefunctions:
    minimum data exchange during FFTs selected (reduces bandwidth)
 parallel 3D FFT for charge:
    minimum data exchange during FFTs selected (reduces bandwidth)


 total amount of memory used by VASP MPI-rank0  2555105. kBytes
=======================================================================

   base      :      30000. kBytes
   nonlr-proj:      17144. kBytes
   fftplans  :      79581. kBytes
   grid      :     173670. kBytes
   one-center:       1088. kBytes
   wavefun   :    2253622. kBytes

     INWAV:  cpu time    0.0000: real time    0.0000
 Broyden mixing: mesh for mixing (old mesh)
   NGX = 85   NGY = 67   NGZ = 99
  (NGX  =256   NGY  =200   NGZ  =300)
  gives a total of 563805 points

 initial charge density was supplied:
 charge density of overlapping atoms calculated
 number of electron    1264.0000000 magnetization 
 keeping initial charge density in first step


--------------------------------------------------------------------------------------------------------


 Maximum index for non-local projection operator          659
 Maximum index for augmentation-charges         1136 (set IRDMAX)


--------------------------------------------------------------------------------------------------------


 First call to EWALD:  gamma=   0.079
 Maximum number of real-space cells 3x 3x 2
 Maximum number of reciprocal cells 3x 2x 3

    FEWALD:  cpu time    0.0976: real time    0.0980


--------------------------------------- Iteration      1(   1)  ---------------------------------------


    POTLOK:  cpu time    1.0470: real time    1.0525
    SETDIJ:  cpu time    2.0559: real time    2.0632
     EDDAV:  cpu time  349.0044: real time  350.4500
       DOS:  cpu time    0.0070: real time    0.0070
    --------------------------------------------
      LOOP:  cpu time  352.1143: real time  353.5727

 eigenvalue-minimisations  :  8664
 total energy-change (2. order) : 0.1302185E+05  (-0.5027479E+05)
 number of electron    1264.0000000 magnetization 
 augmentation part     1264.0000000 magnetization 

 DIPCOR: dipole corrections for dipol
 direction  3 min pos    77,
 dipolmoment           0.000000      0.000000      6.475727 electrons x Angstroem
 Tr[quadrupol]    -96243.205063

 energy correction for charged system         0.000000 eV
 dipol+quadrupol energy correction           -0.340953 eV
 added-field ion interaction        888.305414 eV  (added to PSCEN)


 Free energy of the ion-electron system (eV)
  ---------------------------------------------------
  alpha Z        PSCENC =      1383.28126895
  Ewald energy   TEWEN  =    309422.32488501
  -Hartree energ DENC   =   -371793.81605707
  -exchange      EXHF   =         0.00000000
  -V(xc)+E(xc)   XCENC  =      3795.20818253
  PAW double counting   =     60068.29421653   -59086.67348277
  entropy T*S    EENTRO =        -1.56915744
  eigenvalues    EBANDS =     -5644.77789851
  atomic energy  EATOM  =     74879.57743707
  Solvation  Ediel_sol  =         0.00000000
  ---------------------------------------------------
  free energy    TOTEN  =     13021.84939431 eV

  energy without entropy =    13023.41855175  energy(sigma->0) =    13022.63397303


--------------------------------------------------------------------------------------------------------




--------------------------------------- Iteration      1(   2)  ---------------------------------------


     EDDAV:  cpu time  415.9400: real time  417.6588
       DOS:  cpu time    0.0031: real time    0.0031
    --------------------------------------------
      LOOP:  cpu time  415.9431: real time  417.6619

 eigenvalue-minimisations  : 10688
 total energy-change (2. order) :-0.1243381E+05  (-0.1204568E+05)
 number of electron    1264.0000000 magnetization 
 augmentation part     1264.0000000 magnetization 

 DIPCOR: dipole corrections for dipol
 direction  3 min pos    77,
 dipolmoment           0.000000      0.000000      6.475727 electrons x Angstroem
 Tr[quadrupol]    -96243.205063

 energy correction for charged system         0.000000 eV
 dipol+quadrupol energy correction           -0.340953 eV
 added-field ion interaction        888.305414 eV  (added to PSCEN)


 Free energy of the ion-electron system (eV)
  ---------------------------------------------------
  alpha Z        PSCENC =      1383.28126895
  Ewald energy   TEWEN  =    309422.32488501
  -Hartree energ DENC   =   -371793.81605707
  -exchange      EXHF   =         0.00000000
  -V(xc)+E(xc)   XCENC  =      3795.20818253
  PAW double counting   =     60068.29421653   -59086.67348277
  entropy T*S    EENTRO =        -0.00000000
  eigenvalues    EBANDS =    -18080.15862880
  atomic energy  EATOM  =     74879.57743707
  Solvation  Ediel_sol  =         0.00000000
  ---------------------------------------------------
  free energy    TOTEN  =       588.03782146 eV

  energy without entropy =      588.03782146  energy(sigma->0) =      588.03782146


--------------------------------------------------------------------------------------------------------




--------------------------------------- Iteration      1(   3)  ---------------------------------------


     EDDAV:  cpu time  361.5188: real time  363.0338
       DOS:  cpu time    0.0032: real time    0.0032
    --------------------------------------------
      LOOP:  cpu time  361.5220: real time  363.0370

 eigenvalue-minimisations  :  9008
 total energy-change (2. order) :-0.2620846E+04  (-0.2609973E+04)
 number of electron    1264.0000000 magnetization 
[...]
      6.66167      0.01750     15.98200         0.007524      0.003394     -0.023985
     11.79735     17.60148     16.89220         0.003689     -0.019663     -0.008125
     11.77525      7.48078     19.63228        -0.003395     -0.009447      0.002414
      1.94841     10.98909     10.92575        -0.069055     -0.138209      0.077337
      9.58737     13.83674     15.46733        -0.012234      0.000889      0.007549
     19.70678      7.99968     12.57709         0.115454     -0.149096     -0.252230
      0.40009     17.94876     10.58160         0.095009     -0.140229      0.349622
      0.34415      5.14988     10.51358         0.041996      0.030194      0.097106
      0.21388      2.08667     15.39271         0.004597     -0.009534     -0.005098
     14.28209     11.92899     16.42056        -0.000438     -0.003357     -0.004141
      5.01019      8.63148     13.69836        -0.002306      0.006196     -0.012633
     21.42279     13.69170     13.34099         0.209196      0.249294     -0.623924
     12.18742      2.00159     11.45195         0.190201     -0.073399      0.527781
      9.80635      3.06554     15.85327        -0.007258      0.003072      0.000849
      1.95373      2.52197     10.94102         0.069498     -0.120393      0.115075
     16.43234      0.81267     13.10088         0.070720     -0.074132     -0.290426
     15.56990     16.27355     11.76084        -0.486314      4.543361     -0.171049
     15.21965      9.13359     11.56390         0.058096      0.052942      0.295670
      4.64622     16.53531     12.47363        -0.718046      6.170514     -0.317566
      4.93203      6.64486     16.18616        -0.004895      0.005967     -0.000944
     15.78061     14.75227     15.98551        -0.004195      0.000755     -0.012297
      5.07271     11.62867     14.47775         0.008917     -0.002597      0.007875
      8.63383     13.32142     12.34509        -0.221378     -0.066388      0.213195
     18.67626     16.10528     16.01424        -0.003373     -0.000003      0.003446
     20.59821     16.53183     13.76379        -0.007571     -0.001343      0.008684
     13.49281     10.41158     13.76234        -0.000647     -0.011451     -0.004427
     13.81056      2.09351     14.11923        -0.003398     -0.002334     -0.009588
     20.08975      2.75648     13.31200        -0.190056     -0.002342     -0.421092
     19.56858     10.94014     17.36155        -0.004712      0.010041      0.006646
      3.13099      6.52942      9.59393        -0.099485     -0.119568      0.085872
     18.51026      5.07285     11.87902        -0.293547      0.100692      0.112374
      9.34523      3.21643     10.64590        -0.117159     -0.301668      0.253312
     20.04592     13.59606     16.03660         0.001268     -0.012079     -0.012320
      6.61777     16.93252     14.78293        -0.003071     -0.003473     -0.001455
      0.54021      5.98812     13.50205         0.317470      0.200609     -0.363446
     13.45118     12.60314     11.70944         3.909206     -0.877263     -2.419495
      5.39024     13.63805     12.15046         0.125959     -0.581667      0.047918
     13.89583      5.14781     14.73809        -0.006279      0.001903      0.005575
     22.81572      4.93506     16.20048        -0.003580     -0.007280      0.000940
     20.81045      0.46044     11.40393         0.008934      0.045334      0.148651
      2.44919      3.54039     13.91847        -0.000669     -0.006750     -0.001930
      1.12715     13.28354     12.97472        -0.144114     -0.559079     -0.243021
      5.42394      3.72898     15.08165        -0.003661     -0.010347      0.010109
     13.14328      4.67139     10.24864         8.354969     -5.352512     -3.532491
     11.18579     11.33145     16.79913        -0.002255      0.009760     -0.001503
      6.58203     13.96012     16.07019        -0.004155     -0.000090     -0.006659
      4.88127     11.65920      9.99509         0.078312     -0.064494      0.057486
     17.33828     12.88486     14.40594         0.016962      0.000024      0.010892
     23.09712     17.95256     14.79541        -0.007529     -0.000392      0.005594
     16.46059     13.35206     11.67438        -0.699753     -1.358451      0.398024
     18.44689      1.07968     15.50653        -0.004815      0.013565     -0.000807
     10.68290      5.95195     11.00304        -1.151010      0.535868      0.515798
     10.54319     16.93266     15.97882        -0.007206     -0.016285      0.001925
     11.91165      0.73039     15.74508         0.002841      0.007410      0.000673
      5.71814      6.71222     11.31648         0.031750     -0.125894     -0.079593
     15.41693      5.98005     12.10687        -0.159632     -0.457772     -0.774007
     10.77184      5.76200     14.21702        -0.004360     -0.002652      0.000468
      7.89661     10.69049     10.72869        -0.109691     -0.058532     -0.005990
     18.80638      8.63412     15.58816         0.005090      0.000532      0.003455
      1.62029     16.28844     12.91761        -0.323619      6.442065     -0.529263
      4.96103      2.61769     10.04353        -0.080100     -0.038909      0.098483
      1.83153      8.95162     13.29887         0.017896     -0.166958     -0.286131
     13.05344     15.44546     12.76235       -22.272259    -15.851047      4.743363
     16.82557     10.60284     16.39065         0.002028      0.005502      0.004490
      6.71066      3.80730     12.34244        -0.232831      0.032619     -0.700828
      2.06446     11.33438     15.25967         0.004196      0.002552      0.003555
      8.27882      0.31983     15.57716         0.000867     -0.001148      0.002098
     11.38839      8.69034     15.36796         0.001076     -0.002495      0.012681
     11.20380      8.69525     18.54391         0.001222      0.009826      0.001801
 -----------------------------------------------------------------------------------
    total drift:                                0.326863      0.327217      0.355154


--------------------------------------------------------------------------------------------------------



  FREE ENERGIE OF THE ION-ELECTRON SYSTEM (eV)
  ---------------------------------------------------
  free  energy   TOTEN  =     -1902.78934821 eV

  energy  without entropy=    -1902.78934821  energy(sigma->0) =    -1902.78934821



--------------------------------------------------------------------------------------------------------


    POTLOK:  cpu time    3.0959: real time    3.1066


--------------------------------------------------------------------------------------------------------


 NEB: the previous image is higher in energy: F
 NEB: the next image is higher in energy    : F
 NEB: image is at an extrema
 NEB: diff energy (min, max):     0.084374    0.120916

 NEB: Tangent
 ----------------------------------------------
      0.22988      0.10855      0.02369
      0.26780      0.09959      0.04618
     -0.08794     -0.07691     -0.25163
      0.21936      0.06363      0.04484
     -0.09100     -0.02158     -0.14907
      0.00585     -0.00126      0.00202
      0.00000      0.00000      0.00000
      0.00000      0.00000      0.00000
      0.00000      0.00000      0.00000
      0.00000      0.00000      0.00000
      0.00000      0.00000      0.00000
      0.00000      0.00000      0.00000
     -0.00073     -0.00003      0.00233
      0.00000      0.00000      0.00000
     -0.00168      0.00049     -0.00415
      0.00996      0.00910     -0.00776
     -0.00396     -0.00440      0.00080
     -0.00116      0.00096     -0.00068
      0.00000      0.00000      0.00000
      0.00000      0.00000      0.00000
      0.00562      0.00377      0.00434
      0.00000      0.00000      0.00000
      0.00000      0.00000      0.00000
      0.00000      0.00000      0.00000
      0.00000      0.00000      0.00000
      0.00000      0.00000      0.00000
     -0.02268     -0.00752      0.01013
      0.00000      0.00000      0.00000
      0.00000      0.00000      0.00000
      0.00000      0.00000      0.00000
      0.00000      0.00000      0.00000
      0.00000      0.00000      0.00000
      0.00000      0.00000      0.00000
     -0.00235     -0.00126     -0.00184
     -0.01457     -0.00003     -0.01423
     -0.00068     -0.00217     -0.00167
      0.00000      0.00000      0.00000
      0.00000      0.00000      0.00000
      0.00000      0.00000      0.00000
      0.00000      0.00000      0.00000
      0.00000      0.00000      0.00000
      0.00000      0.00000      0.00000
      0.00000      0.00000      0.00000
      0.00000      0.00000      0.00000
      0.00000      0.00000      0.00000
     -0.01087     -0.00996     -0.01114
     -0.00030     -0.00119      0.00141
     -0.01168     -0.00795     -0.00201
     -0.00117     -0.00381     -0.00043
      0.19162      0.08660     -0.04859
      0.19900      0.09887     -0.00169
      0.27554      0.09134      0.03418
     -0.07140     -0.15603     -0.35284
      0.14015      0.04063      0.06913
      0.22161      0.08869      0.07721
      0.22727      0.02860     -0.02918
     -0.07732     -0.10413     -0.09388
     -0.08995      0.04359     -0.07156
     -0.09926      0.04272     -0.19362
      0.00000      0.00000      0.00000
      0.00000      0.00000      0.00000
     -0.00105     -0.00425     -0.00273
      0.00246     -0.00759     -0.00370
     -0.00011     -0.00126      0.00031
      0.00000      0.00000      0.00000
      0.00000      0.00000      0.00000
      0.00000      0.00000      0.00000
      0.00000      0.00000      0.00000
      0.00031     -0.00068      0.00079
      0.00000      0.00000      0.00000
      0.00000      0.00000      0.00000
      0.00091     -0.00888     -0.00147
      0.00000      0.00000      0.00000
     -0.00436     -0.00086      0.00126
      0.00000      0.00000      0.00000
      0.00000      0.00000      0.00000
      0.00000      0.00000      0.00000
     -0.00035     -0.00095     -0.00055
     -0.00145     -0.00084      0.00021
      0.04129     -0.03187      0.00765
      0.00000      0.00000      0.00000
      0.00000      0.00000      0.00000
      0.00000      0.00000      0.00000
      0.00000      0.00000      0.00000
      0.00000      0.00000      0.00000
     -0.00218     -0.00249      0.00311
     -0.00162     -0.00047     -0.00869
      0.00955     -0.03702      0.05537
     -0.00303     -0.00079     -0.00004
      0.00000      0.00000      0.00000
      0.00000      0.00000      0.00000
      0.00000      0.00000      0.00000
      0.00025     -0.00218      0.00274
      0.00000      0.00000      0.00000
      0.00000      0.00000      0.00000
      0.00000      0.00000      0.00000
      0.00000      0.00000      0.00000
      0.00000      0.00000      0.00000
     -0.00092     -0.00070      0.00021
     -0.00642     -0.00549     -0.00536
     -0.00319     -0.00200     -0.00054
      0.00000      0.00000      0.00000
      0.00000      0.00000      0.00000
      0.00398     -0.01474     -0.01177
      0.00000      0.00000      0.00000
     -0.00587     -0.00652     -0.00416
     -0.00028     -0.00428      0.00133
      0.00000      0.00000      0.00000
     -0.00617     -0.00038     -0.00116
     -0.01318     -0.00640     -0.02482
      0.00126      0.00005      0.00021
     -0.00055     -0.00115      0.00039
      0.00000      0.00000      0.00000
      0.00358     -0.00868     -0.00563
     -0.00158     -0.00034     -0.00350
      0.00000      0.00000      0.00000
      0.00000      0.00000      0.00000
      0.00000      0.00000      0.00000
     -0.00311     -0.00134     -0.00057
     -0.00049     -0.00128      0.00066
      0.00000      0.00000      0.00000
      0.00351     -0.00887      0.00258
     -0.00166     -0.00190     -0.00150
      0.00000      0.00000      0.00000
      0.00000      0.00000      0.00000
      0.00000      0.00000      0.00000
     -0.02539      0.01909      0.03940
      0.00000      0.00000      0.00000
      0.00000      0.00000      0.00000
      0.00991     -0.01151      0.00508
      0.00000      0.00000      0.00000
     -0.00695     -0.01785     -0.00353
      0.00000      0.00000      0.00000
     -0.00111     -0.00058     -0.00120
      0.00000      0.00000      0.00000
     -0.00439      0.00089      0.00034
      0.00000      0.00000      0.00000
      0.00086     -0.00218     -0.00070
      0.00000      0.00000      0.00000
      0.00059     -0.00109     -0.00069
      0.00034     -0.00006     -0.00022
      0.00000      0.00000      0.00000
     -0.00151     -0.00148      0.00036
      0.00000      0.00000      0.00000
     -0.00249     -0.00130      0.00016
      0.00000      0.00000      0.00000
      0.00000      0.00000      0.00000
     -0.00052     -0.00067     -0.00027
      0.00000      0.00000      0.00000
      0.00000      0.00000      0.00000
      0.00071     -0.00292      0.00098
      0.00000      0.00000      0.00000
      0.00000      0.00000      0.00000
      0.00000      0.00000      0.00000
      0.00000      0.00000      0.00000
     -0.00056     -0.00078     -0.00020
     -0.00310      0.00112     -0.00145
      0.00000      0.00000      0.00000
      0.00000      0.00000      0.00000
      0.00000      0.00000      0.00000
      0.00154     -0.00384      0.00517
      0.00000      0.00000      0.00000
     -0.00074     -0.00101     -0.00057
      0.00283     -0.00980     -0.00557
     -0.00053      0.00019      0.00009
      0.00000      0.00000      0.00000
     -0.00243     -0.00140      0.00016
      0.00000      0.00000      0.00000
     -0.02151      0.00077      0.00905
      0.00000      0.00000      0.00000
      0.00017      0.00007     -0.00002
      0.00048      0.00168     -0.00111
      0.00000      0.00000      0.00000
     -0.00041      0.00083     -0.00042
      0.00000      0.00000      0.00000
      0.00019      0.00065      0.00048
      0.00000      0.00000      0.00000
      0.00170     -0.00830     -0.00996
      0.00000      0.00000      0.00000
      0.00000      0.00000      0.00000
      0.00039     -0.00300     -0.00209
      0.00000      0.00000      0.00000
      0.00000      0.00000      0.00000
      0.00000      0.00000      0.00000
      0.00000      0.00000      0.00000
     -0.02584      0.00586     -0.00284
     -0.00411     -0.00370      0.00054
      0.00000      0.00000      0.00000
      0.00000      0.00000      0.00000
      0.00000      0.00000      0.00000
      0.00000      0.00000      0.00000
      0.00000      0.00000      0.00000
     -0.00212      0.00057      0.00010
      0.00000      0.00000      0.00000
     -0.00441     -0.00062     -0.00525
      0.00000      0.00000      0.00000
      0.00000      0.00000      0.00000
      0.00000      0.00000      0.00000
      0.00000      0.00000      0.00000
      0.00000      0.00000      0.00000
      0.00000      0.00000      0.00000
     -0.00170     -0.00188     -0.00047
     -0.00700     -0.00741      0.02144
     -0.00157     -0.01117      0.00661
      0.00404     -0.00510     -0.00075
      0.00399     -0.00966      0.00341
     -0.00512     -0.00233     -0.00081
     -0.00328     -0.00172      0.00057
     -0.00369     -0.00407      0.00113
     -0.00022     -0.00118     -0.00020
      0.00280     -0.00849     -0.00217
      0.00232     -0.00960      0.00250
     -0.19759      0.16408      0.11615
      0.00000      0.00000      0.00000
     -0.00126     -0.00575      0.00134
      0.00000      0.00000      0.00000
      0.00000      0.00000      0.00000
      0.00000      0.00000      0.00000
     -0.00071     -0.00093      0.00005
     -0.00775     -0.00379      0.00888
     -0.00036     -0.00070     -0.00029
      0.00000      0.00000      0.00000
      0.00000      0.00000      0.00000
      0.00072     -0.00916     -0.00398
      0.00000      0.00000      0.00000
      0.00000      0.00000      0.00000
      0.00000      0.00000      0.00000
      0.00000      0.00000      0.00000
      0.00000      0.00000      0.00000
     -0.01082     -0.00330     -0.00572
     -0.00312     -0.00289      0.00037
      0.00054     -0.00120     -0.00085
      0.00000      0.00000      0.00000
     -0.00238     -0.00157      0.00051
     -0.00084     -0.00040      0.00039
     -0.00125      0.00001      0.00061
     -0.00041     -0.00215      0.00108
      0.00000      0.00000      0.00000
     -0.00416     -0.00106      0.00062
      0.00000      0.00000      0.00000
      0.00000      0.00000      0.00000
      0.00000      0.00000      0.00000
     -0.00282     -0.00156      0.00056
      0.00175     -0.00609     -0.00359
      0.00000      0.00000      0.00000
      0.00000      0.00000      0.00000
      0.00000      0.00000      0.00000
      0.00266     -0.00372      0.00030
     -0.00178     -0.00061     -0.00026
      0.00000      0.00000      0.00000
     -0.00085     -0.00049      0.00005
      0.00000      0.00000      0.00000
     -0.00086     -0.00137      0.00019
      0.00000      0.00000      0.00000
     -0.00391     -0.00100      0.02409
     -0.00003     -0.00372     -0.00184
      0.00000      0.00000      0.00000
     -0.00236     -0.00111     -0.00016
     -0.00043     -0.00112      0.00016
      0.00000      0.00000      0.00000
     -0.00061     -0.00132     -0.00011
      0.00000      0.00000      0.00000
      0.00242     -0.00818      0.00238
      0.00252     -0.00828      0.00342
      0.00000      0.00000      0.00000
      0.00000      0.00000      0.00000
      0.00369     -0.01049     -0.00221
      0.00000      0.00000      0.00000
     -0.00120      0.00011     -0.00073
      0.00000      0.00000      0.00000
      0.00000      0.00000      0.00000
      0.00000      0.00000      0.00000
      0.00000      0.00000      0.00000
     -0.00416     -0.00196     -0.00151
      0.00000      0.00000      0.00000
      0.00029      0.00055      0.00011
      0.00237     -0.00887     -0.00276
      0.02266     -0.02489      0.01259
     -0.12301      0.01132     -0.07807

 NEB: forces: par spring, perp REAL, dneb     0.705203    0.160885    0.000000
 NEB: distance to prev, next image, angle between     1.476226    1.335185  154.264852
 NEB: projections on to tangent (spring, REAL)    -0.705203   -0.001117

 stress matrix after NEB project (eV)
    -33.05313     -0.05631      0.27812
     -0.05631    -33.59985     -0.40803
      0.27812     -0.40803    -25.58861
  FORCES: max atom, RMS     0.035445    0.009632
  FORCE total and by dimension    0.160889    0.029319
  Stress total and by dimension   53.635157   33.599853
 OPT: skip step - force has converged


--------------------------------------------------------------------------------------------------------


  
 reached required accuracy - stopping structural energy minimisation
     LOOP+:  cpu time 5268.4081: real time 5289.8433
    4ORBIT:  cpu time    0.0000: real time    0.0000

 total amount of memory used by VASP MPI-rank0  2555105. kBytes
=======================================================================

   base      :      30000. kBytes
   nonlr-proj:      17144. kBytes
   fftplans  :      79581. kBytes
   grid      :     173670. kBytes
   one-center:       1088. kBytes
   wavefun   :    2253622. kBytes

  
  
 General timing and accounting informations for this job:
 ========================================================
  
                  Total CPU time used (sec):     5365.475
                            User time (sec):     5360.896
                          System time (sec):        4.579
                         Elapsed time (sec):     5388.094
  
                   Maximum memory used (kb):     2838248.
                   Average memory used (kb):           0.
  
                          Minor page faults:      1240776
                          Major page faults:           58
                 Voluntary context switches:         2399
