 vasp.5.4.4.18Apr17-6-g9f103f2a35 (build Oct 20 2021 08:33:53) complex           
 executed on             LinuxGNU date 2024.03.20  01:37:26
 running on   32 total cores
 distrk:  each k-point on   32 cores,    1 groups
 distr:  one band on NCORES_PER_BAND=   4 cores,    8 groups


--------------------------------------------------------------------------------------------------------


 INCAR:
 POTCAR:    PAW_PBE C 08Apr2002                   
 POTCAR:    PAW_PBE H 15Jun2001                   
 POTCAR:    PAW_PBE O 08Apr2002                   
 POTCAR:    PAW_PBE Si 05Jan2001                  
 POTCAR:    PAW_PBE W 08Apr2002                   
 POTCAR:    PAW_PBE C 08Apr2002                   
   VRHFIN =C: s2p2                                                              
   LEXCH  = PE                                                                  
   EATOM  =   147.1560 eV,   10.8157 Ry                                         
                                                                                
   TITEL  = PAW_PBE C 08Apr2002                                                 
   LULTRA =        F    use ultrasoft PP ?                                      
   IUNSCR =        1    unscreen: 0-lin 1-nonlin 2-no                           
   RPACOR =    1.200    partial core radius                                     
   POMASS =   12.011; ZVAL   =    4.000    mass and valenz                      
   RCORE  =    1.500    outmost cutoff radius                                   
   RWIGS  =    1.630; RWIGS  =    0.863    wigner-seitz radius (au A)           
   ENMAX  =  400.000; ENMIN  =  300.000 eV                                      
   ICORE  =        2    local potential                                         
   LCOR   =        T    correct aug charges                                     
   LPAW   =        T    paw PP                                                  
   EAUG   =  644.873                                                            
   DEXC   =    0.000                                                            
   RMAX   =    1.529    core radius for proj-oper                               
   RAUG   =    1.300    factor for augmentation sphere                          
   RDEP   =    1.501    radius for radial grids                                 
   RDEPT  =    1.300    core radius for aug-charge                              
                                                                                
   Atomic configuration                                                         
    4 entries                                                                   
     n  l   j            E        occ.                                          
     1  0  0.50      -273.3789   2.0000                                         
     2  0  0.50       -13.7508   2.0000                                         
     2  1  0.50        -5.2854   2.0000                                         
     3  2  1.50        -5.4423   0.0000                                         
   Description                                                                  
     l       E           TYP  RCUT    TYP  RCUT                                 
     0    -13.7508458     23  1.200                                             
     0     -8.2022199     23  1.200                                             
     1     -5.2854383     23  1.500                                             
     1     34.0145650     23  1.500                                             
     2     -5.4423304      7  1.500                                             
  local pseudopotential read in
  partial core-charges read in
  partial kinetic energy density read in
  atomic valenz-charges read in
  non local Contribution for L=           0  read in
    real space projection operators read in
  non local Contribution for L=           0  read in
    real space projection operators read in
  non local Contribution for L=           1  read in
    real space projection operators read in
  non local Contribution for L=           1  read in
    real space projection operators read in
    PAW grid and wavefunctions read in

   number of l-projection  operators is LMAX  =           4
   number of lm-projection operators is LMMAX =           8

 POTCAR:    PAW_PBE H 15Jun2001                   
   VRHFIN =H: ultrasoft test                                                    
   LEXCH  = PE                                                                  
   EATOM  =    12.4884 eV,    0.9179 Ry                                         
                                                                                
   TITEL  = PAW_PBE H 15Jun2001                                                 
   LULTRA =        F    use ultrasoft PP ?                                      
   IUNSCR =        0    unscreen: 0-lin 1-nonlin 2-no                           
   RPACOR =    0.000    partial core radius                                     
   POMASS =    1.000; ZVAL   =    1.000    mass and valenz                      
   RCORE  =    1.100    outmost cutoff radius                                   
   RWIGS  =    0.700; RWIGS  =    0.370    wigner-seitz radius (au A)           
   ENMAX  =  250.000; ENMIN  =  200.000 eV                                      
   RCLOC  =    0.701    cutoff for local pot                                    
   LCOR   =        T    correct aug charges                                     
   LPAW   =        T    paw PP                                                  
   EAUG   =  400.000                                                            
   RMAX   =    1.123    core radius for proj-oper                               
   RAUG   =    1.200    factor for augmentation sphere                          
   RDEP   =    1.112    radius for radial grids                                 
   RDEPT  =    0.926    core radius for aug-charge                              
                                                                                
   Atomic configuration                                                         
    2 entries                                                                   
     n  l   j            E        occ.                                          
     1  0  0.50        -6.4927   1.0000                                         
     2  1  0.50        -3.4015   0.0000                                         
   Description                                                                  
     l       E           TYP  RCUT    TYP  RCUT                                 
     0     -6.4927494     23  1.100                                             
     0      6.8029130     23  1.100                                             
     1     -4.0817478     23  1.100                                             
  local pseudopotential read in
  atomic valenz-charges read in
  non local Contribution for L=           0  read in
    real space projection operators read in
  non local Contribution for L=           0  read in
    real space projection operators read in
  non local Contribution for L=           1  read in
    real space projection operators read in
    PAW grid and wavefunctions read in

   number of l-projection  operators is LMAX  =           3
   number of lm-projection operators is LMMAX =           5

 POTCAR:    PAW_PBE O 08Apr2002                   
   VRHFIN =O: s2p4                                                              
   LEXCH  = PE                                                                  
   EATOM  =   432.3788 eV,   31.7789 Ry                                         
                                                                                
   TITEL  = PAW_PBE O 08Apr2002                                                 
   LULTRA =        F    use ultrasoft PP ?                                      
   IUNSCR =        1    unscreen: 0-lin 1-nonlin 2-no                           
   RPACOR =    1.200    partial core radius                                     
   POMASS =   16.000; ZVAL   =    6.000    mass and valenz                      
   RCORE  =    1.520    outmost cutoff radius                                   
   RWIGS  =    1.550; RWIGS  =    0.820    wigner-seitz radius (au A)           
   ENMAX  =  400.000; ENMIN  =  300.000 eV                                      
   ICORE  =        2    local potential                                         
   LCOR   =        T    correct aug charges                                     
   LPAW   =        T    paw PP                                                  
   EAUG   =  605.392                                                            
   DEXC   =    0.000                                                            
   RMAX   =    1.553    core radius for proj-oper                               
   RAUG   =    1.300    factor for augmentation sphere                          
   RDEP   =    1.550    radius for radial grids                                 
   RDEPT  =    1.329    core radius for aug-charge                              
                                                                                
   Atomic configuration                                                         
    4 entries                                                                   
     n  l   j            E        occ.                                          
     1  0  0.50      -514.6923   2.0000                                         
     2  0  0.50       -23.9615   2.0000                                         
     2  1  0.50        -9.0305   4.0000                                         
     3  2  1.50        -9.5241   0.0000                                         
   Description                                                                  
     l       E           TYP  RCUT    TYP  RCUT                                 
     0    -23.9615318     23  1.200                                             
     0     -9.5240782     23  1.200                                             
     1     -9.0304911     23  1.520                                             
     1      8.1634956     23  1.520                                             
     2     -9.5240782      7  1.500                                             
  local pseudopotential read in
  partial core-charges read in
  partial kinetic energy density read in
  kinetic energy density of atom read in
  atomic valenz-charges read in
  non local Contribution for L=           0  read in
    real space projection operators read in
  non local Contribution for L=           0  read in
    real space projection operators read in
  non local Contribution for L=           1  read in
    real space projection operators read in
  non local Contribution for L=           1  read in
    real space projection operators read in
    PAW grid and wavefunctions read in

   number of l-projection  operators is LMAX  =           4
   number of lm-projection operators is LMMAX =           8

 POTCAR:    PAW_PBE Si 05Jan2001                  
   VRHFIN =Si: s2p2                                                             
   LEXCH  = PE                                                                  
   EATOM  =   103.0669 eV,    7.5752 Ry                                         
                                                                                
   TITEL  = PAW_PBE Si 05Jan2001                                                
   LULTRA =        F    use ultrasoft PP ?                                      
   IUNSCR =        1    unscreen: 0-lin 1-nonlin 2-no                           
   RPACOR =    1.500    partial core radius                                     
   POMASS =   28.085; ZVAL   =    4.000    mass and valenz                      
   RCORE  =    1.900    outmost cutoff radius                                   
   RWIGS  =    2.480; RWIGS  =    1.312    wigner-seitz radius (au A)           
   ENMAX  =  245.345; ENMIN  =  184.009 eV                                      
   ICORE  =        2    local potential                                         
   LCOR   =        T    correct aug charges                                     
   LPAW   =        T    paw PP                                                  
   EAUG   =  322.069                                                            
   DEXC   =    0.000                                                            
   RMAX   =    1.950    core radius for proj-oper                               
   RAUG   =    1.300    factor for augmentation sphere                          
   RDEP   =    1.993    radius for radial grids                                 
   RDEPT  =    1.837    core radius for aug-charge                              
                                                                                
   Atomic configuration                                                         
    6 entries                                                                   
     n  l   j            E        occ.                                          
     1  0  0.50     -1785.8828   2.0000                                         
     2  0  0.50      -139.4969   2.0000                                         
     2  1  1.50       -95.5546   6.0000                                         
     3  0  0.50       -10.8127   2.0000                                         
     3  1  0.50        -4.0811   2.0000                                         
     3  2  1.50        -4.0817   0.0000                                         
   Description                                                                  
     l       E           TYP  RCUT    TYP  RCUT                                 
     0    -10.8127223     23  1.900                                             
     0     -7.6451159     23  1.900                                             
     1     -4.0811372     23  1.900                                             
     1      2.4879257     23  1.900                                             
     2     -4.0817478      7  1.900                                             
  local pseudopotential read in
  partial core-charges read in
  partial kinetic energy density read in
  atomic valenz-charges read in
  non local Contribution for L=           0  read in
    real space projection operators read in
  non local Contribution for L=           0  read in
    real space projection operators read in
  non local Contribution for L=           1  read in
    real space projection operators read in
  non local Contribution for L=           1  read in
    real space projection operators read in
    PAW grid and wavefunctions read in

   number of l-projection  operators is LMAX  =           4
   number of lm-projection operators is LMMAX =           8

 POTCAR:    PAW_PBE W 08Apr2002                   
   VRHFIN =W : 6s5d                                                             
   LEXCH  = PE                                                                  
   EATOM  =   204.6103 eV,   15.0384 Ry                                         
                                                                                
   TITEL  = PAW_PBE W 08Apr2002                                                 
   LULTRA =        F    use ultrasoft PP ?                                      
   IUNSCR =        1    unscreen: 0-lin 1-nonlin 2-no                           
   RPACOR =    2.330    partial core radius                                     
   POMASS =  183.850; ZVAL   =    6.000    mass and valenz                      
   RCORE  =    2.750    outmost cutoff radius                                   
   RWIGS  =    2.750; RWIGS  =    1.455    wigner-seitz radius (au A)           
   ENMAX  =  223.057; ENMIN  =  167.293 eV                                      
   RCLOC  =    2.147    cutoff for local pot                                    
   LCOR   =        T    correct aug charges                                     
   LPAW   =        T    paw PP                                                  
   EAUG   =  373.438                                                            
   DEXC   =    0.000                                                            
   RMAX   =    2.801    core radius for proj-oper                               
   RAUG   =    1.300    factor for augmentation sphere                          
   RDEP   =    2.886    radius for radial grids                                 
   RDEPT  =    2.230    core radius for aug-charge                              
                                                                                
   Atomic configuration                                                         
   16 entries                                                                   
     n  l   j            E        occ.                                          
     1  0  0.50    -69465.5836   2.0000                                         
     2  0  0.50    -11986.2642   2.0000                                         
     2  1  1.50    -10479.8616   6.0000                                         
     3  0  0.50     -2759.0758   2.0000                                         
     3  1  1.50     -2313.1857   6.0000                                         
     3  2  2.50     -1801.1185  10.0000                                         
     4  0  0.50      -567.6791   2.0000                                         
     4  1  1.50      -421.4694   6.0000                                         
     4  2  2.50      -236.3473  10.0000                                         
     4  3  3.50       -31.2666  14.0000                                         
     5  0  0.50       -77.1085   2.0000                                         
     5  1  1.50       -41.3856   6.0000                                         
     5  2  2.50        -3.3185   5.0000                                         
     6  0  0.50        -5.1438   1.0000                                         
     6  1  0.50        -3.8096   0.0000                                         
     5  3  2.50        -1.3606   0.0000                                         
   Description                                                                  
     l       E           TYP  RCUT    TYP  RCUT                                 
     2     -3.3185288     23  2.500                                             
     2     -1.5965414     23  2.500                                             
     0     -5.1438054     23  2.500                                             
     0      4.9117504     23  2.500                                             
     1      2.7211652     23  2.750                                             
     1     27.2116520     23  2.750                                             
  local pseudopotential read in
  partial core-charges read in
  partial kinetic energy density read in
  atomic valenz-charges read in
  non local Contribution for L=           2  read in
    real space projection operators read in
  non local Contribution for L=           2  read in
    real space projection operators read in
  non local Contribution for L=           0  read in
    real space projection operators read in
  non local Contribution for L=           0  read in
    real space projection operators read in
  non local Contribution for L=           1  read in
    real space projection operators read in
  non local Contribution for L=           1  read in
    real space projection operators read in
    PAW grid and wavefunctions read in

   number of l-projection  operators is LMAX  =           6
   number of lm-projection operators is LMMAX =          18

 Optimization of the real space projectors (new method)

 maximal supplied QI-value         = 25.13
 optimisation between [QCUT,QGAM] = [ 11.31, 22.87] = [ 35.82,146.48] Ry 
 Optimized for a Real-space Cutoff    1.00 Angstroem

   l    n(q)    QCUT    max X(q) W(low)/X(q) W(high)/X(q)  e(spline) 
   0      7    11.310   115.676    0.43E-03    0.13E-02    0.19E-06
   0      7    11.310    87.132    0.43E-03    0.13E-02    0.18E-06
   1      6    11.310     4.429    0.42E-03    0.74E-03    0.11E-06
   1      6    11.310     2.733    0.34E-03    0.55E-03    0.92E-07
 Optimization of the real space projectors (new method)

 maximal supplied QI-value         = 34.20
 optimisation between [QCUT,QGAM] = [ 11.29, 22.57] = [ 35.68,142.71] Ry 
 Optimized for a Real-space Cutoff    1.16 Angstroem

   l    n(q)    QCUT    max X(q) W(low)/X(q) W(high)/X(q)  e(spline) 
   0      8    11.287    19.460    0.40E-03    0.73E-03    0.16E-06
   0      8    11.287    12.209    0.38E-03    0.70E-03    0.15E-06
   1      7    11.287     4.655    0.22E-03    0.25E-04    0.22E-06
 Optimization of the real space projectors (new method)

 maximal supplied QI-value         = 24.76
 optimisation between [QCUT,QGAM] = [ 11.39, 22.77] = [ 36.31,145.25] Ry 
 Optimized for a Real-space Cutoff    1.00 Angstroem

   l    n(q)    QCUT    max X(q) W(low)/X(q) W(high)/X(q)  e(spline) 
   0      7    11.387    20.381    0.39E-03    0.13E-02    0.15E-06
   0      7    11.387    15.268    0.42E-03    0.14E-02    0.17E-06
   1      6    11.387     5.964    0.41E-03    0.11E-02    0.17E-06
   1      6    11.387     5.382    0.39E-03    0.87E-03    0.15E-06
 Optimization of the real space projectors (new method)

 maximal supplied QI-value         = 19.84
 optimisation between [QCUT,QGAM] = [ 11.31, 22.82] = [ 35.82,145.81] Ry 
 Optimized for a Real-space Cutoff    1.16 Angstroem

   l    n(q)    QCUT    max X(q) W(low)/X(q) W(high)/X(q)  e(spline) 
   0      8    11.310   159.560    0.27E-03    0.30E-03    0.39E-07
   0      8    11.310   115.863    0.27E-03    0.30E-03    0.38E-07
   1      7    11.310    88.339    0.28E-03    0.28E-03    0.77E-07
   1      7    11.310    48.592    0.27E-03    0.27E-03    0.74E-07
 Optimization of the real space projectors (new method)

 maximal supplied QI-value         = 13.61
 optimisation between [QCUT,QGAM] = [ 11.43, 22.86] = [ 36.58,146.31] Ry 
 Optimized for a Real-space Cutoff    1.56 Angstroem

   l    n(q)    QCUT    max X(q) W(low)/X(q) W(high)/X(q)  e(spline) 
   2     10    11.429   130.855    0.22E-03    0.64E-03    0.11E-05
   2     10    11.429   114.007    0.22E-03    0.64E-03    0.11E-05
   0     11    11.429    84.709    0.39E-04    0.67E-04    0.23E-06
   0     11    11.429    49.163    0.35E-04    0.62E-04    0.21E-06
   1     10    11.429    15.765    0.84E-04    0.15E-03    0.24E-06
   1     10    11.429    10.638    0.58E-04    0.12E-03    0.19E-06

 ----------------------------------------------------------------------------- 
|                                                                             |
|  ADVICE TO THIS USER RUNNING 'VASP/VAMP'   (HEAR YOUR MASTER'S VOICE ...):  |
|                                                                             |
|      You enforced a specific xc-type in the INCAR file,                     |
|      a different type was found on the POTCAR file                          |
|          I HOPE YOU KNOW, WHAT YOU ARE  DOING                               |
|                                                                             |
 ----------------------------------------------------------------------------- 

  PAW_PBE C 08Apr2002                   :
 energy of atom  1       EATOM= -147.1560
 kinetic energy error for atom=    0.0076 (will be added to EATOM!!)
  PAW_PBE H 15Jun2001                   :
 energy of atom  2       EATOM=  -12.4884
 kinetic energy error for atom=    0.0020 (will be added to EATOM!!)
  PAW_PBE O 08Apr2002                   :
 energy of atom  3       EATOM= -432.3788
 kinetic energy error for atom=    0.0224 (will be added to EATOM!!)
  PAW_PBE Si 05Jan2001                  :
 energy of atom  4       EATOM= -103.0669
 kinetic energy error for atom=    0.0006 (will be added to EATOM!!)
  PAW_PBE W 08Apr2002                   :
 energy of atom  5       EATOM= -204.6103
 kinetic energy error for atom=    0.0017 (will be added to EATOM!!)


 POSCAR:  C  H  O Si  W                          
  positions in direct lattice
  velocities in cartesian coordinates
 exchange correlation table for  LEXCH =        9
   RHO(1)=    0.500       N(1)  =     2000
   RHO(2)=  100.500       N(2)  =     4000

 VTST: version 3.2, (02/03/18)

 CHAIN: initializing optimizer
 
 OPT: Using VASP QUASI-newton optimizer
 CHAIN: Read ICHAIN            0

 POSCAR:  C  H  O Si  W                          
  positions in direct lattice
  velocities in cartesian coordinates



--------------------------------------------------------------------------------------------------------


 ion  position               nearest neighbor table
   1  0.494  0.554  0.830-  49 1.10   2 1.34   3 1.51
   2  0.524  0.491  0.832-  50 1.10   1 1.34   4 1.51
   3  0.520  0.630  0.828-  52 1.10  51 1.10  53 1.10   1 1.51
   4  0.499  0.414  0.835-  55 1.10  56 1.10  54 1.10   2 1.51
   5  0.762  0.104  0.651- 131 0.97
   6  0.926  0.279  0.356-  79 0.98
   7  0.793  0.207  0.373- 114 0.97
   8  0.975  0.944  0.325- 123 0.97
   9  0.626  0.963  0.375- 125 0.98
  10  0.821  0.995  0.369- 143 0.97
  11  0.750  0.141  0.458- 181 0.98
  12  0.915  0.249  0.510- 186 0.97
  13  0.583  0.304  0.306- 191 0.97
  14  0.891  0.335  0.617-  97 0.98
  15  0.585  0.355  0.617- 142 0.97
  16  0.594  0.872  0.578- 184 0.99
  17  0.034  0.337  0.653- 190 0.97
  18  0.935  0.420  0.454- 179 0.98
  19  0.746  0.530  0.422-  93 1.00
  20  0.797  0.382  0.635- 171 0.97
  21  0.591  0.569  0.378- 105 0.99
  22  0.718  0.646  0.383- 128 0.99
  23  0.841  0.542  0.420- 134 0.98
  24  0.005  0.604  0.358- 139 0.97
  25  0.828  0.712  0.468- 180 0.99
  26  0.875  0.599  0.723-  59 0.97
  27  0.520  0.986  0.422- 141 0.99
  28  0.223  0.980  0.393- 182 1.00
  29  0.216  0.238  0.319- 197 0.99
  30  0.158  0.330  0.279- 188 0.97
  31  0.342  0.156  0.331- 189 0.98
  32  0.223  0.046  0.323- 196 0.97
  33  0.512  0.825  0.547- 199 0.97
  34  0.378  0.241  0.647-  84 0.97
  35  0.244  0.093  0.599- 135 0.98
  36  0.315  0.487  0.442-  58 0.99
  37  0.409  0.439  0.406- 147 0.98
  38  0.398  0.793  0.389- 185 0.97
  39  0.244  0.655  0.294- 193 0.97
  40  0.312  0.418  0.369- 194 0.98
  41  0.405  0.584  0.339- 195 0.97
  42  0.139  0.488  0.352- 187 0.98
  43  0.593  0.698  0.352-  88 0.97
  44  0.469  0.861  0.444- 198 0.99
  45  0.121  0.323  0.612- 107 0.97
  46  0.069  0.667  0.645- 138 0.97
  47  0.240  0.388  0.683- 183 0.97
  48  0.248  0.814  0.670- 192 0.97
  49  0.447  0.551  0.830-   1 1.10
  50  0.571  0.494  0.832-   2 1.10
  51  0.506  0.664  0.860-   3 1.10
  52  0.567  0.627  0.828-   3 1.10
  53  0.506  0.659  0.794-   3 1.10
  54  0.512  0.385  0.869-   4 1.10
  55  0.452  0.416  0.833-   4 1.10
  56  0.513  0.381  0.803-   4 1.10
  57  0.369  0.648  0.439- 230 1.66 265 1.68
  58  0.347  0.504  0.420-  36 0.99 265 1.67
  59  0.861  0.566  0.697-  26 0.97 236 1.63
  60  0.349  0.958  0.530- 241 1.68 274 1.70
  61  0.034  0.932  0.529- 256 1.63 267 1.66
  62  0.636  0.079  0.489- 234 1.60 223 1.65
  63  0.069  0.052  0.395- 222 1.64 214 1.65
  64  0.452  0.130  0.421- 239 1.65 220 1.65
  65  0.806  0.214  0.483- 238 1.67 235 1.69
  66  0.973  0.182  0.599- 216 1.63 246 1.65
  67  0.275  0.299  0.449- 262 1.65 272 1.66
  68  0.556  0.775  0.442- 243 1.51 270 1.66
  69  0.392  0.973  0.619- 260 1.65 274 1.66
  70  0.178  0.350  0.405- 262 1.66 237 1.67
  71  0.867  0.684  0.637- 240 1.64 236 1.65
  72  0.866  0.967  0.467- 232 1.60 247 1.65
  73  0.301  0.761  0.458- 230 1.65 244 1.67
  74  0.422  0.261  0.380- 239 1.67 259 1.67
  75  0.811  0.465  0.520- 266 1.63 213 1.64
  76  0.984  0.073  0.521- 256 1.68 216 1.69
  77  0.515  0.445  0.626- 275 1.69 276 1.92
  78  0.035  0.920  0.429- 267 1.64 214 1.65
  79  0.963  0.303  0.351-   6 0.98 215 1.65
  80  0.070  0.336  0.376- 215 1.64 237 1.65
  81  0.208  0.729  0.395- 244 1.66 254 1.67
  82  0.039  0.419  0.499- 269 1.64 242 1.65
  83  0.240  0.286  0.588- 250 1.63 227 1.63
  84  0.398  0.195  0.644-  34 0.97 221 1.64
  85  0.462  0.559  0.591- 252 1.69 275 1.70 276 2.62
  86  0.910  0.749  0.557- 240 1.64 219 1.65
  87  0.869  0.108  0.442- 247 1.64 235 1.65
  88  0.573  0.667  0.376-  43 0.97 243 1.68
  89  0.142  0.159  0.376- 268 1.65 222 1.65
  90  0.351  0.765  0.606- 212 1.62 253 1.64
  91  0.911  0.845  0.483- 232 1.62 219 1.66
  92  0.061  0.537  0.442- 269 1.66 211 1.67
  93  0.708  0.555  0.420-  19 1.00 225 1.67
  94  0.075  0.817  0.483- 267 1.50 249 1.65
  95  0.700  0.828  0.433- 224 1.53 257 1.65
  96  0.730  0.049  0.543- 223 1.64 258 1.64
  97  0.919  0.302  0.632-  14 0.98 246 1.63
  98  0.736  0.854  0.613- 231 1.66 228 1.67
  99  0.625  0.527  0.486- 233 1.59 225 1.68
 100  0.557  0.630  0.467- 243 1.52 233 1.63
 101  0.426  0.246  0.555- 264 1.68 221 1.68
 102  0.978  0.728  0.477- 249 1.65 219 1.65
 103  0.655  0.595  0.634- 271 1.64 217 1.66
 104  0.397  0.746  0.515- 212 1.65 230 1.66
 105  0.603  0.518  0.386-  21 0.99 225 1.65
 106  0.719  0.632  0.557- 255 1.63 271 1.65
 107  0.147  0.364  0.620-  45 0.97 227 1.64
 108  0.067  0.549  0.542- 269 1.63 273 1.64
 109  0.819  0.885  0.537- 232 1.65 231 1.66
 110  0.828  0.355  0.452- 238 1.65 213 1.65
 111  0.528  0.299  0.533- 264 1.61 245 1.63
 112  0.737  0.500  0.595- 271 1.65 266 1.66
 113  0.557  0.172  0.395- 251 1.59 220 1.64
 114  0.806  0.256  0.383-   7 0.97 238 1.67
 115  0.237  0.953  0.508- 241 1.58 226 1.67
 116  0.693  0.777  0.541- 255 1.64 228 1.64
 117  0.924  0.950  0.553- 256 1.65 232 1.65
 118  0.526  0.318  0.399- 251 1.45 259 1.66
 119  0.469  0.990  0.546- 260 1.69 261 1.70
 120  0.838  0.095  0.540- 235 1.65 258 1.66
 121  0.538  0.116  0.486- 234 1.61 220 1.67
 122  0.350  0.187  0.440- 272 1.63 239 1.65
 123  0.012  0.962  0.335-   8 0.97 214 1.65
 124  0.456  0.600  0.680- 252 1.68 276 1.92
 125  0.655  0.925  0.379-   9 0.98 224 1.66
 126  0.076  0.686  0.436- 211 1.65 249 1.66
 127  0.452  0.404  0.551- 275 1.66 264 1.70
 128  0.719  0.700  0.380-  22 0.99 257 1.65
 129  0.451  0.704  0.599- 252 1.62 212 1.63
 130  0.753  0.709  0.476- 255 1.63 257 1.69
 131  0.778  0.121  0.621-   5 0.97 258 1.64
 132  0.993  0.308  0.448- 242 1.66 215 1.68
 133  0.532  0.508  0.530- 275 1.63 233 1.66
 134  0.817  0.499  0.423-  23 0.98 213 1.69
 135  0.236  0.145  0.605-  35 0.98 250 1.62
 136  0.204  0.831  0.471- 226 1.50 244 1.63
 137  0.240  0.559  0.523- 229 1.65 218 1.66
 138  0.061  0.625  0.624-  46 0.97 273 1.63
 139  0.046  0.602  0.354-  24 0.97 211 1.65
 140  0.801  0.979  0.606- 231 1.66 258 1.68
 141  0.538  0.028  0.405-  27 0.99 220 1.66
 142  0.607  0.313  0.605-  15 0.97 245 1.64
 143  0.862  0.004  0.369-  10 0.97 247 1.66
 144  0.095  0.149  0.467- 248 1.62 222 1.65
 145  0.172  0.204  0.531- 248 1.61 250 1.63
 146  0.641  0.704  0.455- 243 1.65 257 1.66
 147  0.437  0.410  0.386-  37 0.98 259 1.66
 148  0.575  0.059  0.571- 261 1.62 234 1.65
 149  0.151  0.593  0.389- 254 1.68 211 1.68
 150  0.268  0.602  0.392- 265 1.65 254 1.67
 151  0.440  0.322  0.470- 264 1.64 259 1.69
 152  0.238  0.159  0.430- 268 1.65 272 1.67
 153  0.073  0.150  0.563- 248 1.64 216 1.64
 154  0.845  0.544  0.600- 236 1.66 266 1.66
 155  0.621  0.280  0.411- 263 1.65 251 1.66
 156  0.603  0.892  0.467- 270 1.29 224 1.67
 157  0.031  0.195  0.389- 215 1.66 222 1.66
 158  0.608  0.196  0.547- 234 1.62 245 1.64
 159  0.133  0.938  0.479- 267 1.65 226 1.66
 160  0.080  0.280  0.512- 242 1.64 248 1.65
 161  0.373  0.104  0.568- 274 1.63 221 1.69
 162  0.067  0.697  0.536- 249 1.63 273 1.63
 163  0.666  0.415  0.430- 225 1.65 263 1.65
 164  0.799  0.730  0.564- 255 1.61 240 1.63
 165  0.704  0.957  0.470- 223 1.65 224 1.66
 166  0.595  0.632  0.555- 233 1.63 217 1.64
 167  0.723  0.294  0.452- 238 1.63 263 1.64
 168  0.978  0.314  0.547- 242 1.64 246 1.67
 169  0.158  0.630  0.571- 229 1.63 273 1.65
 170  0.633  0.327  0.508- 245 1.63 263 1.65
 171  0.819  0.396  0.606-  20 0.97 266 1.65
 172  0.959  0.027  0.417- 247 1.64 214 1.65
 173  0.282  0.195  0.519- 272 1.63 250 1.65
 174  0.249  0.443  0.461- 218 1.66 262 1.71
 175  0.273  0.849  0.568- 241 1.64 253 1.65
 176  0.204  0.686  0.487- 229 1.63 244 1.66
 177  0.147  0.476  0.493- 218 1.63 269 1.65
 178  0.225  0.422  0.557- 218 1.61 227 1.64
 179  0.911  0.453  0.474-  18 0.98 213 1.65
 180  0.870  0.705  0.464-  25 0.99 219 1.65
 181  0.738  0.093  0.445-  11 0.98 223 1.66
 182  0.222  0.930  0.408-  28 1.00 226 1.64
 183  0.251  0.402  0.650-  47 0.97 227 1.64
 184  0.631  0.884  0.593-  16 0.99 228 1.62
 185  0.410  0.789  0.423-  38 0.97 230 1.68
 186  0.918  0.196  0.508-  12 0.97 235 1.65
 187  0.133  0.444  0.332-  42 0.98 237 1.65
 188  0.155  0.304  0.311-  30 0.97 237 1.69
 189  0.373  0.131  0.348-  31 0.98 239 1.66
 190  0.035  0.292  0.633-  17 0.97 246 1.66
 191  0.573  0.257  0.320-  13 0.97 251 1.66
 192  0.246  0.770  0.650-  48 0.97 253 1.63
 193  0.207  0.648  0.310-  39 0.97 254 1.65
 194  0.275  0.392  0.367-  40 0.98 262 1.66
 195  0.365  0.598  0.342-  41 0.97 265 1.67
 196  0.226  0.056  0.358-  32 0.97 268 1.69
 197  0.241  0.196  0.329-  29 0.99 268 1.66
 198  0.501  0.892  0.455-  44 0.99 270 1.60
 199  0.551  0.828  0.534-  33 0.97 270 1.67
 200  0.547  0.654  0.638- 252 1.65 217 1.65
 201  0.479  0.122  0.596- 261 1.65 221 1.65
 202  0.263  0.694  0.568- 253 1.65 229 1.65
 203  0.443  0.847  0.581- 260 1.66 212 1.68
 204  0.766  0.618  0.649- 271 1.64 236 1.66
 205  0.845  0.832  0.623- 240 1.66 231 1.68
 206  0.642  0.740  0.621- 217 1.66 228 1.70
 207  0.008  0.033  0.603- 256 1.69 216 1.69
 208  0.285  0.002  0.593- 274 1.69 241 1.70
 209  0.504  0.971  0.628- 260 1.69 261 1.70
 210  0.458  0.446  0.729- 276 1.71
 211  0.083  0.606  0.406- 139 1.65 126 1.65  92 1.67 149 1.68 269 3.13
 212  0.409  0.766  0.574-  90 1.62 129 1.63 104 1.65 203 1.68 253 3.06
 213  0.842  0.441  0.468-  75 1.64 110 1.65 179 1.65 134 1.69
 214  0.017  0.990  0.394-  63 1.65 172 1.65  78 1.65 123 1.65 267 3.11 222 3.13
 215  0.015  0.284  0.391-  80 1.64  79 1.65 157 1.66 132 1.68 242 3.11 222 3.11
 216  0.009  0.115  0.573-  66 1.63 153 1.64  76 1.69 207 1.69 256 2.39 248 3.05 246 3.07
 217  0.611  0.659  0.612- 166 1.64 200 1.65 103 1.66 206 1.66 271 2.86 252 3.12
 218  0.214  0.476  0.510- 178 1.61 177 1.63 137 1.66 174 1.66 229 3.10 262 3.14
 219  0.915  0.756  0.496- 102 1.65 180 1.65  86 1.65  91 1.66 232 2.99 240 3.03
 220  0.521  0.110  0.426- 113 1.64  64 1.65 141 1.66 121 1.67 251 3.08 234 3.12
 221  0.419  0.169  0.589-  84 1.64 201 1.65 101 1.68 161 1.69 274 3.13 261 3.14
 222  0.083  0.139  0.407-  63 1.64 144 1.65  89 1.65 157 1.66 215 3.11 214 3.13 268 3.14
 223  0.702  0.045  0.487-  96 1.64 165 1.65  62 1.65 181 1.66 234 3.09 224 3.10
 224  0.665  0.898  0.437-  95 1.53 165 1.66 125 1.66 156 1.67 270 2.83 257 3.06 223 3.10
 225  0.650  0.504  0.430- 105 1.65 163 1.65  93 1.67  99 1.68 233 3.08
 226  0.198  0.912  0.464- 136 1.50 182 1.64 159 1.66 115 1.67 244 3.01 241 3.06 267 3.07
 227  0.214  0.366  0.604-  83 1.63 178 1.64 107 1.64 183 1.64
 228  0.675  0.815  0.594- 184 1.62 116 1.64  98 1.67 206 1.70 255 2.89
 229  0.217  0.641  0.539- 169 1.63 176 1.63 202 1.65 137 1.65 244 3.09 218 3.10 273 3.12
 230  0.369  0.735  0.459-  73 1.65 104 1.66  57 1.66 185 1.68
 231  0.798  0.889  0.596- 140 1.66  98 1.66 109 1.66 205 1.68 240 2.86 232 2.99 258 3.14
 232  0.880  0.912  0.512-  72 1.60  91 1.62 109 1.65 117 1.65 231 2.99 219 2.99 256 3.06 247 3.13

 233  0.576  0.575  0.512-  99 1.59 166 1.63 100 1.63 133 1.66 243 3.00 225 3.08
 234  0.590  0.116  0.525-  62 1.60 121 1.61 158 1.62 148 1.65 261 2.85 223 3.09 245 3.12 220 3.12

 235  0.858  0.152  0.495- 186 1.65  87 1.65 120 1.65  65 1.69 247 3.07 238 3.15
 236  0.836  0.604  0.646-  59 1.63  71 1.65 204 1.66 154 1.66 271 2.93 240 3.00 266 3.01
 237  0.134  0.360  0.357- 187 1.65  80 1.65  70 1.67 188 1.69 262 3.11
 238  0.791  0.280  0.442- 167 1.63 110 1.65 114 1.67  65 1.67 235 3.15
 239  0.399  0.177  0.396-  64 1.65 122 1.65 189 1.66  74 1.67 259 3.07
 240  0.856  0.750  0.597- 164 1.63  86 1.64  71 1.64 205 1.66 231 2.86 236 3.00 219 3.03
 241  0.283  0.934  0.549- 115 1.58 175 1.64  60 1.68 208 1.70 274 2.38 226 3.06
 242  0.023  0.330  0.502- 160 1.64 168 1.64  82 1.65 132 1.66 246 3.11 215 3.11 248 3.13
 243  0.575  0.695  0.436-  68 1.51 100 1.52 146 1.65  88 1.68 233 3.00 270 3.06 257 3.10
 244  0.230  0.753  0.452- 136 1.63 176 1.66  81 1.66  73 1.67 254 2.97 226 3.01 229 3.09
 245  0.594  0.284  0.548- 170 1.63 111 1.63 142 1.64 158 1.64 234 3.12
 246  0.975  0.272  0.603-  97 1.63  66 1.65 190 1.66 168 1.67 216 3.07 242 3.11
 247  0.889  0.025  0.424-  87 1.64 172 1.64  72 1.65 143 1.66 235 3.07 232 3.13
 248  0.105  0.195  0.518- 145 1.61 144 1.62 153 1.64 160 1.65 216 3.05 242 3.13
 249  0.048  0.733  0.483- 162 1.63 102 1.65  94 1.65 126 1.66 267 3.05 273 3.15
 250  0.232  0.206  0.561- 135 1.62  83 1.63 145 1.63 173 1.65 272 3.03
 251  0.561  0.258  0.381- 118 1.45 113 1.59 155 1.66 191 1.66 259 2.87 220 3.08
 252  0.480  0.633  0.626- 129 1.62 200 1.65 124 1.68  85 1.69 276 2.84 217 3.12
 253  0.282  0.770  0.598- 192 1.63  90 1.64 202 1.65 175 1.65 212 3.06
 254  0.209  0.643  0.372- 193 1.65 150 1.67  81 1.67 149 1.68 244 2.97
 255  0.740  0.711  0.536- 164 1.61 130 1.63 106 1.63 116 1.64 228 2.89 257 2.91 271 3.07
 256  0.987  0.991  0.550-  61 1.63 117 1.65  76 1.68 207 1.69 216 2.39 232 3.06
 257  0.703  0.737  0.434-  95 1.65 128 1.65 146 1.66 130 1.69 255 2.91 224 3.06 243 3.10
 258  0.788  0.060  0.577- 131 1.64  96 1.64 120 1.66 140 1.68 231 3.14
 259  0.456  0.328  0.409- 147 1.66 118 1.66  74 1.67 151 1.69 251 2.87 239 3.07
 260  0.450  0.936  0.594-  69 1.65 203 1.66 209 1.69 119 1.69 261 2.36 274 2.74
 261  0.509  0.041  0.586- 148 1.62 201 1.65 119 1.70 209 1.70 260 2.36 234 2.85 221 3.14
 262  0.244  0.370  0.421-  67 1.65  70 1.66 194 1.66 174 1.71 237 3.11 218 3.14
 263  0.659  0.330  0.450- 167 1.64 155 1.65 163 1.65 170 1.65
 264  0.460  0.317  0.529- 111 1.61 151 1.64 101 1.68 127 1.70
 265  0.337  0.590  0.399- 150 1.65 195 1.67  58 1.67  57 1.68
 266  0.803  0.477  0.580-  75 1.63 171 1.65 154 1.66 112 1.66 271 2.91 236 3.01
 267  0.069  0.899  0.481-  94 1.50  78 1.64 159 1.65  61 1.66 249 3.05 226 3.07 214 3.11
 268  0.212  0.144  0.374-  89 1.65 152 1.65 197 1.66 196 1.69 272 3.12 222 3.14
 269  0.078  0.494  0.495- 108 1.63  82 1.64 177 1.65  92 1.66 273 3.10 211 3.13
 270  0.558  0.852  0.475- 156 1.29 198 1.60  68 1.66 199 1.67 224 2.83 243 3.06
 271  0.719  0.585  0.610- 103 1.64 204 1.64 106 1.65 112 1.65 217 2.86 266 2.91 236 2.93 255 3.07

 272  0.287  0.210  0.459- 173 1.63 122 1.63  67 1.66 152 1.67 250 3.03 268 3.12
 273  0.088  0.626  0.568- 138 1.63 162 1.63 108 1.64 169 1.65 269 3.10 229 3.12 249 3.15
 274  0.354  0.019  0.578- 161 1.63  69 1.66 208 1.69  60 1.70 241 2.38 260 2.74 221 3.13
 275  0.489  0.476  0.572- 133 1.63 127 1.66  77 1.69  85 1.70 276 2.90
 276  0.475  0.497  0.678- 210 1.71  77 1.92 124 1.92  85 2.62 252 2.84 275 2.90

  LATTYP: Found a simple orthorhombic cell.
 ALAT       =    18.1212369514
 B/A-ratio  =     1.2919258579
 C/A-ratio  =     1.4835282260
  
  Lattice vectors:
  
 A1 = (   0.0000000000, -18.1212369514,   0.0000000000)
 A2 = ( -23.4112945954,   0.0000000000,   0.0000000000)
 A3 = (   0.0000000000,   0.0000000000, -26.8833665073)


Analysis of symmetry for initial positions (statically):
=====================================================================
 Subroutine PRICEL returns:
 Original cell was already a primitive cell.
 

 Routine SETGRP: Setting up the symmetry group for a 
 simple orthorhombic supercell.


 Subroutine GETGRP returns: Found  1 space group operations
 (whereof  1 operations were pure point group operations)
 out of a pool of  8 trial point group operations.


The static configuration has the point symmetry C_1 .


Analysis of symmetry for dynamics (positions and initial velocities):
=====================================================================
 Subroutine PRICEL returns:
 Original cell was already a primitive cell.
 

 Routine SETGRP: Setting up the symmetry group for a 
 simple orthorhombic supercell.


 Subroutine GETGRP returns: Found  1 space group operations
 (whereof  1 operations were pure point group operations)
 out of a pool of  8 trial point group operations.


The dynamic configuration has the point symmetry C_1 .


Analysis of constrained symmetry for selective dynamics:
=====================================================================
 Subroutine PRICEL returns:
 Original cell was already a primitive cell.
 

 Routine SETGRP: Setting up the symmetry group for a 
 simple orthorhombic supercell.


 Subroutine GETGRP returns: Found  1 space group operations
 (whereof  1 operations were pure point group operations)
 out of a pool of  8 trial point group operations.


The constrained configuration has the point symmetry C_1 .


 Subroutine INISYM returns: Found  1 space group operations
 (whereof  1 operations are pure point group operations),
 and found     1 'primitive' translations



 KPOINTS: KPOINTS created by Atomic Simulation Env

Automatic generation of k-mesh.
Space group operators:
 irot       det(A)        alpha          n_x          n_y          n_z        tau_x        tau_y        tau_z
    1     1.000000     0.000000     1.000000     0.000000     0.000000     0.000000     0.000000     0.000000
 
 Subroutine IBZKPT returns following result:
 ===========================================
 
 Found      5 irreducible k-points:
 
 Following reciprocal coordinates:
            Coordinates               Weight
  0.000000  0.000000  0.000000      1.000000
  0.333333  0.000000  0.000000      2.000000
  0.000000  0.333333  0.000000      2.000000
  0.333333  0.333333  0.000000      2.000000
 -0.333333  0.333333  0.000000      2.000000
 
 Following cartesian coordinates:
            Coordinates               Weight
  0.000000  0.000000  0.000000      1.000000
  0.014238  0.000000  0.000000      2.000000
  0.000000  0.018395  0.000000      2.000000
  0.014238  0.018395  0.000000      2.000000
 -0.014238  0.018395  0.000000      2.000000
 


--------------------------------------------------------------------------------------------------------




 Dimension of arrays:
   k-points           NKPTS =      5   k-points in BZ     NKDIM =      5   number of bands    NBANDS=    768
   number of dos      NEDOS =    301   number of ions     NIONS =    276
   non local maximal  LDIM  =      6   non local SUM 2l+1 LMDIM =     18
   total plane-waves  NPLWV = ******
   max r-space proj   IRMAX =   2748   max aug-charges    IRDMAX=   9808
   dimension x,y,z NGX =   128 NGY =  100 NGZ =  150
   dimension x,y,z NGXF=   256 NGYF=  200 NGZF=  300
   support grid    NGXF=   256 NGYF=  200 NGZF=  300
   ions per type =               4  52 154  65   1
   NGX,Y,Z   is equivalent  to a cutoff of   9.09,  9.17,  9.28 a.u.
   NGXF,Y,Z  is equivalent  to a cutoff of  18.18, 18.35, 18.55 a.u.

 SYSTEM =  unknown system                          
 POSCAR =   C  H  O Si  W                          

 Startparameter for this run:
   NWRITE =      2    write-flag & timer
   PREC   = normal    normal or accurate (medium, high low for compatibility)
   ISTART =      0    job   : 0-new  1-cont  2-samecut
   ICHARG =      2    charge: 1-file 2-atom 10-const
   ISPIN  =      1    spin polarized calculation?
   LNONCOLLINEAR =      F non collinear calculations
   LSORBIT =      F    spin-orbit coupling
   INIWAV =      1    electr: 0-lowe 1-rand  2-diag
   LASPH  =      T    aspherical Exc in radial PAW
   METAGGA=      F    non-selfconsistent MetaGGA calc.

 Electronic Relaxation 1
   ENCUT  =  500.0 eV  36.75 Ry    6.06 a.u.  42.68 33.04 49.01*2*pi/ulx,y,z
   ENINI  =  500.0     initial cutoff
   ENAUG  =  644.9 eV  augmentation charge cutoff
   NELM   =     60;   NELMIN=  2; NELMDL=  0     # of ELM steps 
   EDIFF  = 0.1E-03   stopping-criterion for ELM
   LREAL  =      T    real-space projection
   NLSPLINE    = F    spline interpolate recip. space projectors
   LCOMPAT=      F    compatible to vasp.4.4
   GGA_COMPAT  = T    GGA compatible to vasp.4.4-vasp.4.6
   LMAXPAW     = -100 max onsite density
   LMAXMIX     =    2 max onsite mixed and CHGCAR
   VOSKOWN=      0    Vosko Wilk Nusair interpolation
   ROPT   =   -0.00050  -0.00050  -0.00050  -0.00050
   ROPT   =   -0.00050
 Ionic relaxation
   EDIFFG = -.5E-01   stopping-criterion for IOM
   NSW    =    150    number of steps for IOM
   NBLOCK =      1;   KBLOCK =    150    inner block; outer block 
   IBRION =      1    ionic relax: 0-MD 1-quasi-New 2-CG
   NFREE  =      0    steps in history (QN), initial steepest desc. (CG)
   ISIF   =      0    stress and relaxation
   IWAVPR =     11    prediction:  0-non 1-charg 2-wave 3-comb
   ISYM   =      2    0-nonsym 1-usesym 2-fastsym
   LCORR  =      T    Harris-Foulkes like correction to forces

   POTIM  = 0.5000    time-step for ionic-motion
   TEIN   =    0.0    initial temperature
   TEBEG  =    0.0;   TEEND  =   0.0 temperature during run
   SMASS  =  -3.00    Nose mass-parameter (am)
   estimated Nose-frequenzy (Omega)   =  0.10E-29 period in steps =****** mass=  -0.125E-25a.u.
   SCALEE = 1.0000    scale energy and forces
   NPACO  =    256;   APACO  = 16.0  distance and # of slots for P.C.
   PSTRESS=    0.0 pullay stress

  Mass of Ions in am
   POMASS =  12.01  1.00 16.00 28.09183.85
  Ionic Valenz
   ZVAL   =   4.00  1.00  6.00  4.00  6.00
  Atomic Wigner-Seitz radii
   RWIGS  =  -1.00 -1.00 -1.00 -1.00 -1.00
  virtual crystal weights 
   VCA    =   1.00  1.00  1.00  1.00  1.00
   NELECT =    1258.0000    total number of electrons
   NUPDOWN=      -1.0000    fix difference up-down

 DOS related values:
   EMIN   =  10.00;   EMAX   =-10.00  energy-range for DOS
   EFERMI =   0.00
   ISMEAR =     0;   SIGMA  =   0.20  broadening in eV -4-tet -1-fermi 0-gaus

 Electronic relaxation 2 (details)
   IALGO  =     68    algorithm
   LDIAG  =      T    sub-space diagonalisation (order eigenvalues)
   LSUBROT=      F    optimize rotation matrix (better conditioning)
   TURBO    =      0    0=normal 1=particle mesh
   IRESTART =      0    0=no restart 2=restart with 2 vectors
   NREBOOT  =      0    no. of reboots
   NMIN     =      0    reboot dimension
   EREF     =   0.00    reference energy to select bands
   IMIX   =      4    mixing-type and parameters
     AMIX     =   0.40;   BMIX     =  1.00
     AMIX_MAG =   1.60;   BMIX_MAG =  1.00
     AMIN     =   0.10
     WC   =   100.;   INIMIX=   1;  MIXPRE=   1;  MAXMIX= -45

 Intra band minimization:
   WEIMIN = 0.0010     energy-eigenvalue tresh-hold
   EBREAK =  0.33E-07  absolut break condition
   DEPER  =   0.30     relativ break condition  

   TIME   =   0.40     timestep for ELM

  volume/ion in A,a.u.               =      41.32       278.86
  Fermi-wavevector in a.u.,A,eV,Ry     =   0.785120  1.483662  8.386815  0.616413
  Thomas-Fermi vector in A             =   1.889391

 Write flags
   LWAVE        =      F    write WAVECAR
   LDOWNSAMPLE  =      F    k-point downsampling of WAVECAR
   LCHARG       =      F    write CHGCAR
   LVTOT        =      F    write LOCPOT, total local potential
   LVHAR        =      F    write LOCPOT, Hartree potential only
   LELF         =      F    write electronic localiz. function (ELF)
   LORBIT       =      0    0 simple, 1 ext, 2 COOP (PROOUT), +10 PAW based schemes


 Dipole corrections
   LMONO  =      F    monopole corrections only (constant potential shift)
   LDIPOL =      T    correct potential (dipole corrections)
   IDIPOL =      3    1-x, 2-y, 3-z, 4-all directions 
   EPSILON=  1.0000000 bulk dielectric constant

 Exchange correlation treatment:
   GGA     =    RP    GGA type
   LEXCH   =     9    internal setting for exchange type
   VOSKOWN=      0    Vosko Wilk Nusair interpolation
   LHFCALC =     F    Hartree Fock is set to
   LHFONE  =     F    Hartree Fock one center treatment
   AEXX    =    0.0000 exact exchange contribution

 Linear response parameters
   LEPSILON=     F    determine dielectric tensor
   LRPA    =     F    only Hartree local field effects (RPA)
   LNABLA  =     F    use nabla operator in PAW spheres
   LVEL    =     F    velocity operator in full k-point grid
   LINTERFAST=   F  fast interpolation
   KINTER  =     0    interpolate to denser k-point grid
   CSHIFT  =0.1000    complex shift for real part using Kramers Kronig
   OMEGAMAX=  -1.0    maximum frequency
   DEG_THRESHOLD= 0.2000000E-02 threshold for treating states as degnerate
   RTIME   =   -0.100 relaxation time in fs
  (WPLASMAI=    0.000 imaginary part of plasma frequency in eV, 0.658/RTIME)
   DFIELD  = 0.0000000 0.0000000 0.0000000 field for delta impulse in time

 Orbital magnetization related:
   ORBITALMAG=     F  switch on orbital magnetization
   LCHIMAG   =     F  perturbation theory with respect to B field
   DQ        =  0.001000  dq finite difference perturbation B field
   LLRAUG    =     F  two centre corrections for induced B field



--------------------------------------------------------------------------------------------------------


 quasi-Newton-method for relaxation of ions
   using selective dynamics as specified on POSCAR
 charge density and potential will be updated during run
 non-spin polarized calculation
 RMM-DIIS sequential band-by-band and
  variant of blocked Davidson during initial phase
 perform sub-space diagonalisation
    before iterative eigenvector-optimisation
 modified Broyden-mixing scheme, WC =      100.0
 initial mixing is a Kerker type mixing with AMIX =  0.4000 and BMIX =      1.0000
 Hartree-type preconditioning will be used
 using additional bands          139
 real space projection scheme for non local part
 use partial core corrections
 calculate Harris-corrections to forces   (improved forces if not selfconsistent)
 use gradient corrections 
 use of overlap-Matrix (Vanderbilt PP)
 Gauss-broadening in eV      SIGMA  =   0.20


--------------------------------------------------------------------------------------------------------


  energy-cutoff  :      500.00
  volume of cell :    11405.04
      direct lattice vectors                 reciprocal lattice vectors
    23.411294595  0.000000000  0.000000000     0.042714426  0.000000000  0.000000000
     0.000000000 18.121236951  0.000000000     0.000000000  0.055183871  0.000000000
     0.000000000  0.000000000 26.883366507     0.000000000  0.000000000  0.037197722

  length of vectors
    23.411294595 18.121236951 26.883366507     0.042714426  0.055183871  0.037197722



 k-points in units of 2pi/SCALE and weight: KPOINTS created by Atomic Simulation Env
   0.00000000  0.00000000  0.00000000       0.111
   0.01423814  0.00000000  0.00000000       0.222
   0.00000000  0.01839462  0.00000000       0.222
   0.01423814  0.01839462  0.00000000       0.222
  -0.01423814  0.01839462  0.00000000       0.222

 k-points in reciprocal lattice and weights: KPOINTS created by Atomic Simulation Env
   0.00000000  0.00000000  0.00000000       0.111
   0.33333333  0.00000000  0.00000000       0.222
   0.00000000  0.33333333  0.00000000       0.222
   0.33333333  0.33333333  0.00000000       0.222
  -0.33333333  0.33333333  0.00000000       0.222

 position of ions in fractional coordinates (direct lattice) 
   0.49389047  0.55381096  0.83015513
   0.52391138  0.49072095  0.83249060
   0.51979459  0.62994068  0.82761524
   0.49865325  0.41432804  0.83453789
   0.76157305  0.10400360  0.65137310
   0.92642768  0.27866896  0.35633493
   0.79333970  0.20727890  0.37345652
   0.97453911  0.94360860  0.32530279
   0.62573266  0.96347285  0.37523120
   0.82053840  0.99500666  0.36899263
   0.74999307  0.14117876  0.45803819
   0.91538376  0.24942823  0.50978332
   0.58349286  0.30426355  0.30592717
   0.89133341  0.33474517  0.61650641
   0.58500774  0.35487119  0.61710202
   0.59408190  0.87168687  0.57805042
   0.03350139  0.33698564  0.65299864
   0.93527051  0.41951423  0.45410146
   0.74613838  0.53031199  0.42248819
   0.79721109  0.38211277  0.63452025
   0.59110202  0.56868283  0.37803474
   0.71843379  0.64593279  0.38346059
   0.84115291  0.54242660  0.41959617
   0.00476455  0.60379815  0.35777830
   0.82835870  0.71235667  0.46794226
   0.87461183  0.59887591  0.72268289
   0.51999031  0.98556476  0.42170307
   0.22309457  0.98015484  0.39320502
   0.21637369  0.23785146  0.31923033
   0.15750105  0.32980623  0.27898292
   0.34154688  0.15558571  0.33077276
   0.22271586  0.04575893  0.32273843
   0.51185335  0.82539475  0.54704757
   0.37766885  0.24115314  0.64732534
   0.24358325  0.09298880  0.59850472
   0.31538097  0.48713646  0.44243467
   0.40895618  0.43873486  0.40569060
   0.39849950  0.79311361  0.38878680
   0.24420236  0.65543008  0.29432688
   0.31174138  0.41847571  0.36925764
   0.40547429  0.58427965  0.33881989
   0.13935762  0.48797365  0.35192946
   0.59326935  0.69798713  0.35239799
   0.46900683  0.86142747  0.44382838
   0.12140741  0.32309532  0.61187596
   0.06933974  0.66732958  0.64479973
   0.23980906  0.38811234  0.68287342
   0.24757271  0.81377244  0.67027166
   0.44707202  0.55088245  0.82975652
   0.57074564  0.49396145  0.83248834
   0.50629888  0.66409103  0.85953126
   0.56677755  0.62739207  0.82754803
   0.50596742  0.65941182  0.79373311
   0.51208722  0.38491454  0.86851486
   0.45173163  0.41607242  0.83341476
   0.51308622  0.38104344  0.80259745
   0.36894173  0.64835510  0.43900002
   0.34681565  0.50403387  0.42038813
   0.86095970  0.56627228  0.69673816
   0.34892450  0.95780630  0.53020177
   0.03353995  0.93215315  0.52870361
   0.63635548  0.07886855  0.48937667
   0.06864615  0.05226542  0.39511073
   0.45189954  0.12956232  0.42059728
   0.80588415  0.21365018  0.48316661
   0.97313887  0.18150668  0.59875794
   0.27476529  0.29917287  0.44851223
   0.55635417  0.77509129  0.44175101
   0.39230525  0.97271922  0.61928744
   0.17751724  0.34996845  0.40527312
   0.86701252  0.68428013  0.63714627
   0.86569601  0.96717693  0.46703846
   0.30104714  0.76093683  0.45792526
   0.42161095  0.26125222  0.37959630
   0.81127842  0.46542539  0.52016801
   0.98415037  0.07265900  0.52106969
   0.51511679  0.44545421  0.62628699
   0.03453641  0.91994776  0.42940526
   0.96303654  0.30319531  0.35125762
   0.06962669  0.33610577  0.37637178
   0.20829566  0.72864429  0.39536010
   0.03890126  0.41910192  0.49910875
   0.23951359  0.28582514  0.58783912
   0.39787680  0.19468082  0.64440870
   0.46244613  0.55896250  0.59052096
   0.90992291  0.74923669  0.55741406
   0.86912727  0.10804334  0.44227833
   0.57257679  0.66733185  0.37613173
   0.14242656  0.15912550  0.37597224
   0.35098806  0.76510971  0.60638225
   0.91099605  0.84504757  0.48317962
   0.06133801  0.53687171  0.44225348
   0.70833903  0.55516655  0.41995768
   0.07548726  0.81680680  0.48299416
   0.70046477  0.82755572  0.43263529
   0.73025116  0.04905592  0.54297191
   0.91876362  0.30157530  0.63220105
   0.73572264  0.85356128  0.61296358
   0.62512195  0.52739400  0.48637871
   0.55657330  0.62970304  0.46724942
   0.42588905  0.24592473  0.55495316
   0.97829009  0.72824363  0.47679564
   0.65476327  0.59504858  0.63384050
   0.39729671  0.74639171  0.51506085
   0.60269007  0.51766545  0.38567099
   0.71928401  0.63185252  0.55710419
   0.14658508  0.36405921  0.61987720
   0.06653822  0.54853074  0.54195226
   0.81896458  0.88489517  0.53660258
   0.82821553  0.35538514  0.45190334
   0.52756117  0.29877775  0.53267180
   0.73701201  0.49983894  0.59523021
   0.55743394  0.17243111  0.39490854
   0.80596408  0.25641257  0.38329286
   0.23744622  0.95325075  0.50791956
   0.69311876  0.77719933  0.54111555
   0.92405168  0.94997061  0.55277501
   0.52573722  0.31778112  0.39855594
   0.46874357  0.99029720  0.54576016
   0.83770353  0.09493960  0.53975535
   0.53790325  0.11641749  0.48623709
   0.35019344  0.18660873  0.43963639
   0.01176032  0.96241390  0.33524376
   0.45586048  0.60043480  0.68001425
   0.65496522  0.92539750  0.37922825
   0.07629334  0.68602626  0.43588102
   0.45175506  0.40414055  0.55103478
   0.71921944  0.70042085  0.37958300
   0.45133068  0.70429453  0.59887870
   0.75255106  0.70932458  0.47629548
   0.77842831  0.12141350  0.62061968
   0.99327462  0.30801347  0.44840298
   0.53235633  0.50781310  0.52972208
   0.81677759  0.49906173  0.42344221
   0.23571251  0.14494604  0.60528947
   0.20353331  0.83070132  0.47053363
   0.24000935  0.55863297  0.52279540
   0.06104993  0.62543921  0.62362220
   0.04607407  0.60234669  0.35417863
   0.80128621  0.97915050  0.60574467
   0.53799091  0.02769749  0.40450275
   0.60655949  0.31260521  0.60510666
   0.86154611  0.00408085  0.36920633
   0.09491131  0.14902284  0.46708233
   0.17154916  0.20384781  0.53066686
   0.64098865  0.70443872  0.45481558
   0.43678778  0.40976848  0.38641325
   0.57455149  0.05883643  0.57108781
   0.15143775  0.59340802  0.38895836
   0.26773979  0.60233753  0.39230630
   0.44025846  0.32219818  0.47032443
   0.23800967  0.15851113  0.42990119
   0.07283733  0.15034575  0.56258341
   0.84539875  0.54396630  0.59996534
   0.62117943  0.27993988  0.41090545
   0.60266699  0.89152667  0.46722346
   0.03138539  0.19528983  0.38899188
   0.60788637  0.19569056  0.54694812
   0.13279973  0.93835464  0.47948708
   0.08025596  0.28038575  0.51158169
   0.37279032  0.10410248  0.56818743
   0.06668102  0.69703857  0.53569788
   0.66648838  0.41538488  0.43001156
   0.79944642  0.72985558  0.56414866
   0.70383856  0.95720843  0.47018456
   0.59540387  0.63233768  0.55514867
   0.72284030  0.29368465  0.45166811
   0.97752968  0.31412541  0.54726178
   0.15841739  0.63000978  0.57055821
   0.63333384  0.32678308  0.50780070
   0.81945543  0.39633038  0.60561232
   0.95857820  0.02724304  0.41695300
   0.28213592  0.19508585  0.51865412
   0.24925755  0.44303289  0.46105570
   0.27281495  0.84925285  0.56838951
   0.20366815  0.68557317  0.48688872
   0.14712345  0.47606988  0.49254493
   0.22453142  0.42239296  0.55674302
   0.91141698  0.45274460  0.47371881
   0.86978818  0.70456011  0.46415352
   0.73812021  0.09283462  0.44522965
   0.22218344  0.92978119  0.40794682
   0.25148460  0.40200555  0.64959550
   0.63113582  0.88401244  0.59332887
   0.41022327  0.78906239  0.42343739
   0.91777135  0.19603829  0.50824515
   0.13254706  0.44353611  0.33227266
   0.15514768  0.30352326  0.31056042
   0.37300515  0.13090704  0.34795342
   0.03454820  0.29195638  0.63344949
   0.57268926  0.25686819  0.32009968
   0.24597783  0.76963542  0.64989880
   0.20737430  0.64840505  0.31036906
   0.27537441  0.39219130  0.36737583
   0.36535081  0.59758663  0.34222079
   0.22638085  0.05618082  0.35811888
   0.24120334  0.19607823  0.32934297
   0.50127293  0.89230162  0.45484168
   0.55067066  0.82775767  0.53438297
   0.54693083  0.65422884  0.63788676
   0.47855745  0.12164014  0.59613247
   0.26285740  0.69397596  0.56842477
   0.44307849  0.84714016  0.58144614
   0.76612509  0.61768292  0.64924072
   0.84523850  0.83193808  0.62288882
   0.64192153  0.74041524  0.62092566
   0.00815334  0.03347835  0.60299941
   0.28476420  0.00155230  0.59348413
   0.50396471  0.97141291  0.62814208
   0.45827826  0.44596731  0.72915738
   0.08322528  0.60642030  0.40641308
   0.40933832  0.76612391  0.57418803
   0.84176382  0.44145312  0.46783897
   0.01708949  0.99048204  0.39361135
   0.01470021  0.28419027  0.39108141
   0.00934307  0.11508919  0.57252580
   0.61066924  0.65906493  0.61198992
   0.21395794  0.47574396  0.50979779
   0.91506213  0.75556094  0.49625454
   0.52057854  0.11045563  0.42598659
   0.41867523  0.16876813  0.58897914
   0.08345253  0.13917208  0.40698087
   0.70189793  0.04484625  0.48732303
   0.66505935  0.89803746  0.43747644
   0.65009874  0.50402706  0.43015089
   0.19846065  0.91248223  0.46399069
   0.21414344  0.36643809  0.60367597
   0.67453823  0.81464025  0.59442138
   0.21674231  0.64149418  0.53850870
   0.36878912  0.73512773  0.45920930
   0.79803568  0.88899646  0.59570635
   0.87992096  0.91235867  0.51197696
   0.57626649  0.57455362  0.51202074
   0.58996749  0.11565497  0.52511438
   0.85812234  0.15211323  0.49517595
   0.83598346  0.60381661  0.64589459
   0.13373852  0.36031890  0.35687228
   0.79065529  0.27993925  0.44187265
   0.39917610  0.17749484  0.39600320
   0.85621094  0.75026715  0.59651704
   0.28306998  0.93420971  0.54945434
   0.02307473  0.33044751  0.50224551
   0.57455938  0.69549008  0.43556436
   0.23024095  0.75260050  0.45196954
   0.59392835  0.28410654  0.54843559
   0.97511772  0.27230598  0.60273080
   0.88890636  0.02540900  0.42420019
   0.10472867  0.19548270  0.51775270
   0.04814566  0.73303709  0.48263019
   0.23194015  0.20573698  0.56103491
   0.56140781  0.25778527  0.38122611
   0.47991479  0.63317167  0.62557663
   0.28168044  0.77002923  0.59763131
   0.20850083  0.64339984  0.37179454
   0.74047897  0.71129961  0.53585641
   0.98681597  0.99063321  0.55034434
   0.70310456  0.73681815  0.43426040
   0.78792769  0.05970774  0.57680895
   0.45631390  0.32845159  0.40928789
   0.45000908  0.93611524  0.59413148
   0.50896313  0.04086276  0.58582285
   0.24424715  0.37040632  0.42094710
   0.65852534  0.33000211  0.45034791
   0.46021531  0.31698778  0.52858317
   0.33729937  0.58994254  0.39908301
   0.80342026  0.47655477  0.57986917
   0.06920979  0.89885916  0.48050551
   0.21190758  0.14445432  0.37359659
   0.07823286  0.49398500  0.49468762
   0.55757019  0.85234010  0.47473025
   0.71878659  0.58529729  0.60971996
   0.28664212  0.21010174  0.45911077
   0.08818815  0.62558317  0.56765710
   0.35358812  0.01865706  0.57797995
   0.48853224  0.47622506  0.57181516
   0.47490076  0.49716806  0.67791874

 position of ions in cartesian coordinates  (Angst):
  11.56261526 10.03573959 22.31736452
  12.26544374  8.89247070 22.38014991
  12.16906425 11.41530431 22.24908386
  11.67411818  7.50813660 22.43518799
  17.82941093  1.88467380 17.51110167
  21.68887124  5.04982631  9.57948250
  18.57310935  3.75615001 10.03976840
  22.81522226 17.09935504  8.74523415
  14.64921175 17.45931981 10.08747787
  19.20986618 18.03075152  9.91976410
  17.55830880  2.55833369 12.31360861
  21.43031895  4.51994801 13.70469175
  13.66032332  5.51363182  8.22435231
  20.86726912  6.06599654 16.57376790
  13.69578854  6.43070494 16.58977988
  13.90822629 15.79604429 15.53994124
   0.78431093  6.10659666 17.55480179
  21.89589338  7.60211669 12.20777585
  17.46806539  9.60990927 11.35790489
  18.66374367  6.92435610 17.05804055
  13.83846347 10.30523625 10.16284657
  16.81946503 11.70510107 10.30871170
  19.69247867  9.82944088 11.28015755
   0.11154425 10.94156933  9.61828518
  19.39294954 12.90878407 12.57986315
  20.47579512 10.85237229 19.42814901
  12.17364643 17.85965258 11.33679820
   5.22293275 17.76161802 10.57067472
   5.06558822  4.31016263  8.58198589
   3.68730349  5.97649684  7.50000000
   7.99605455  2.81940544  8.89228530
   5.21406665  0.82920834  8.67629559
  11.98314952 14.95717387 14.70648042
   8.84171667  4.36999315 17.40228445
   5.70259922  1.68507214 16.08982184
   7.38347683  8.82751530 11.89413327
   9.57419369  7.95041833 10.90632902
   9.32938927 14.37219961 10.45189795
   5.71709332 11.87720376  7.91249741
   7.29826932  7.58329756  9.92688859
   9.49267817 10.58787005  9.10861924
   3.26254231  8.84268608  9.46104865
  13.88920341 12.64839014  9.47364424
  10.98005707 15.61013129 11.93160111
   2.84230465  5.85488681 16.44928562
   1.62333312 12.09283744 17.33438735
   5.61424050  7.03307571 18.35793636
   5.79599754 14.74656323 18.01915866
  10.46653475  9.98267135 22.30664866
  13.36189442  8.95119253 22.38008907
  11.85311224 12.03415096 23.10709395
  13.26899626 11.36912042 22.24727687
  11.84535235 11.94935782 21.33821799
  11.98862473  6.97512758 23.34860335
  10.57562234  7.53974692 22.40499444
  12.01201259  6.90497841 21.57652149
   8.63740362 11.74899635 11.80179838
   8.11940335  9.13371715 11.30144811
  20.15618124 10.26155410 18.73066721
   8.16877430 17.35663485 14.25360845
   0.78521371 16.89176803 14.21333288
  14.89790566  1.42919560 13.15609244
   1.60709516  0.94711409 10.62190669
  10.57955332  2.34782959 11.30707087
  18.86679123  3.87160553 12.98914499
  22.78244070  3.28912556 16.09662916
   6.43261122  5.42138249 12.05751853
  13.02497128 14.04561295 11.87575437
   9.18437375 17.62687539 16.64853120
   4.15590840  6.34186120 10.89510594
  20.29788542 12.40000229 17.12863672
  20.26706433 17.52644236 12.55556607
   7.04790320 13.78911669 12.31057251
   9.87045805  4.73421333 10.20482654
  18.99307807  8.43408372 13.98386728
  23.04023426  1.31667089 14.00810733
  12.05955099  8.07218130 16.83670279
   0.80854198 16.67059137 11.54385891
  22.54593219  5.49427402  9.44298747
   1.63005096  6.09065222 10.11814055
   4.87647100 13.20393591 10.62861051
   0.91072893  7.59464512 13.41772355
   5.60732333  5.17950504 15.80309445
   9.31481090  3.52785720 17.32387513
  10.82646259 10.12909192 15.87519153
  21.30247322 13.57709553 14.98516648
  20.34739459  1.95787901 11.88993046
  13.40476402 12.09287863 10.11168720
   3.33439013  2.88355087 10.10739962
   8.21708494 13.86473440 16.30159614
  21.32759690 15.31330728 12.98949491
   1.43600223  9.72877939 11.88926245
  16.58313365 10.06030463 11.28987623
   1.76725442 14.80154966 12.98450890
  16.39878711 14.99633320 11.63069310
  17.09612507  0.88895394 14.59691294
  21.50944566  5.46491742 16.99569265
  17.22421948 15.46758622 16.47852457
  14.63491423  9.55703168 13.07549710
  13.03010146 11.41099800 12.56123752
   9.97061403  4.45646032 14.91900922
  22.90303759 13.19667544 12.81787194
  15.32885576 10.78301628 17.03976647
   9.30123044 13.52554103 13.84656948
  14.10975474  9.38073831 10.36813464
  16.83936995 11.44994930 14.97683610
   3.43174656  6.59720314 16.66438597
   1.55774592  9.94005551 14.56950123
  19.17302093 16.03539497 14.42568386
  19.38959778  6.44001838 12.14868300
  12.35088990  5.41422239 14.32001134
  17.25440537  9.05769982 16.00179188
  13.05025010  3.12466491 10.61647095
  18.86866258  4.64651295 10.30420244
   5.55892333 17.27408272 13.65458756
  16.22680740 14.08381326 14.54700767
  21.63324612 17.21464249 14.86045328
  12.30818899  5.75858697 10.71452528
  10.97389384 17.94541021 14.67187048
  19.61172423  1.72042300 14.51044077
  12.59301152  2.10962891 13.07168996
   8.19848185  3.38158106 11.81890631
   0.27532438 17.44013033  9.01248080
  10.67228393 10.88062122 18.28107229
  15.33358375 16.76934745 10.19493214
   1.78612593 12.43164437 11.71794928
  10.57617088  7.32352662 14.81366982
  16.83785811 12.69249221 10.20446890
  10.56623559 12.76268814 16.09987554
  17.61819454 12.85383871 12.80442605
  18.22401439  2.20016286 16.68434624
  23.25384464  5.58158514 12.05458163
  12.46315099  9.20220156 14.24071277
  19.12182067  9.04361594 11.38355200
   5.51833499  2.62660155 16.27221871
   4.76497818 15.05333538 12.64952801
   5.61892969 10.12312034 14.05450038
   1.42925778 11.33373208 16.76506422
   1.07865368 10.91526714  9.52151395
  18.75914750 17.74341827 16.28445585
  12.59506368  0.50191281 10.87439573
  14.20034289  5.66479303 16.26730424
  20.16990973  0.07395004  9.92550906
   2.22199659  2.70047811 12.55674536
   4.01618799  3.69397453 14.26611179
  15.00637423 12.76530097 12.22697399
  10.22576747  7.42551174 10.38808912
  13.45099428  1.06618882 15.35276289
   3.54535369 10.75328740 10.45651017
   6.26813510 10.91510113 10.54651395
  10.30702051  5.83862961 12.64390410
   5.57211440  2.87241773 11.55719116
   1.70521611  2.72445105 15.12413601
  19.79187913  9.85734214 16.12908813
  14.54261460  5.07285684 11.04652184
  14.10921452 16.15556596 12.56053950
   0.73477264  3.53889327 10.45741115
  14.23140692  3.54615492 14.70380664
   3.10901352 17.00414686 12.89022683
   1.87889593  5.08093667 13.75303803
   8.72750397  1.88646573 15.27479085
   1.56108889 12.63120102 14.40136239
  15.60335582  7.52728779 11.56015827
  18.71607559 13.22588589 15.16621506
  16.47777184 17.34580083 12.64014391
  13.93917529 11.45874087 14.92426529
  16.92262721  5.32192921 12.14235921
  22.88523532  5.69234094 14.71223891
   3.70875616 11.41655658 15.33852557
  14.82716522  5.92171361 13.65139239
  19.18451247  7.18199669 16.28089804
  22.44155659  0.49367766 11.20910044
   6.60516706  3.53519691 13.94316878
   5.83544193  8.02830396 12.39472924
   6.38695126 15.38951213 15.28022355
   4.76813504 12.42343385 13.08920785
   3.44435051  8.62697504 13.24126574
   5.25657131  7.65428291 14.96712678
  21.33745138  8.20429214 12.73515651
  20.36286723 12.76750071 12.47800922
  17.28034963  1.68227812 11.96927179
   5.20160189 16.84878525 10.96698378
   5.88758002  7.28483787 17.46331380
  14.77570669 16.01939895 15.95067758
   9.60385771 14.29878658 11.38342242
  21.48621551  3.55245637 13.66334053
   3.10309823  8.03742302  8.93260776
   3.63220806  5.50021683  8.34890949
   8.73253334  2.37219755  9.35415932
   0.80881804  5.29061065 17.02925474
  13.40739700  4.65476936  8.60535697
   5.75865933 13.94674586 17.47146765
   4.85490080 11.74990155  8.34376522
   6.44687148  7.10699146  9.87629901
   8.55333550 10.82900896  9.20004704
   5.29986878  1.01806603  9.62744117
   5.64688233  3.55318002  8.85384768
  11.73544815 16.16960912 12.22767567
  12.89191315 14.99999289 14.36601314
  12.80435890 11.85543579 17.14854350
  11.20364942  2.20426988 16.02604760
   6.15383213 12.57570285 15.28117148
  10.37304100 15.35122760 15.63122966
  17.93598016 11.19317862 17.45377631
  19.78812751 15.07574711 16.74534837
  15.02821399 13.41724000 16.69257219
   0.19088022  0.60666919 16.21065427
   6.66669849  0.02812963 15.95485146
  11.79846631 17.60320361 16.88657366
  10.72888734  8.08147925 19.60220509
   1.94841153 10.98908596 10.92575188
   9.58314005 13.88311286 15.43610719
  19.70678075  7.99967650 12.57708649
   0.40008717 17.94875972 10.58159830
   0.34415087  5.14987929 10.51358498
   0.21873337  2.08555848 15.39142097
  14.29655739 11.94307168 16.45234926
   5.00903245  8.62106902 13.70508091
  21.42278905 13.69169878 13.34099278
  12.18741762  2.00159257 11.45195358
   9.80172924  3.05828734 15.83374205
   1.95373172  2.52197018 10.94101594
  16.43233932  0.81266960 13.10088356
  15.56990048 16.27354967 11.76083937
  15.21965321  9.13359373 11.56390395
   4.64622069 16.53530673 12.47363180
   5.01337506  6.64031144 16.22884244
  15.79181323 14.76228900 15.98004783
   5.07421812 11.62466812 14.47692676
   8.63383069 13.32142384 12.34509184
  18.68304844 16.10971550 16.01459222
  20.60008892 16.53306764 13.76366418
  13.49114462 10.41162237 13.76484113
  13.81190276  2.09581117 14.11684225
  20.08975493  2.75647993 13.31199648
  19.57145497 10.94190381 17.36382090
   3.13099191  6.52942423  9.59392828
  18.51026388  5.07284540 11.87902451
   9.34522920  3.21642612 10.64589911
  20.04500657 13.59576872 16.03638615
   6.62703458 16.92903550 14.77118248
   0.54020936  5.98811771 13.50205012
  13.45117902 12.60314055 11.70943634
   5.39023881 13.63805193 12.15046292
  13.90463165  5.14836196 14.74379492
  22.82876823  4.93452114 16.20343308
  20.81044864  0.46044249 11.40392910
   2.45183384  3.54238826 13.91893559
   1.12715225 13.28353886 12.97472440
   5.43001922  3.72820863 15.08250706
  13.14328356  4.67138795 10.24864117
  11.23542643 11.47385388 16.81760595
   6.59450377 13.95388207 16.06634167
   4.88127424 11.65920104  9.99508876
  17.33557123 12.88962882 14.40562415
  23.10263942 17.95149914 14.79510848
  16.46058793 13.35205634 11.67438144
  18.44640734  1.08197819 15.50656637
  10.68289909  5.95194918 11.00303640
  10.53529509 16.96356606 15.97225423
  11.91548584  0.74048368 15.74889035
   5.71814202  6.71222076 11.31647527
  15.41693082  5.98004644 12.10686792
  10.77423619  5.74421062 14.21009511
   7.89661487 10.69048859 10.72869482
  18.80910843  8.63576194 15.58883542
   1.62029077 16.28843975 12.91760565
   4.96103076  2.61769098 10.04353415
   1.83153245  8.95161915 13.29886860
  13.05343995 15.44545689 12.76234739
  16.82772472 10.60631082 16.39132506
   6.71066321  3.80730339 12.34244318
   2.06459866 11.33634089 15.26053374
   8.27795572  0.33808895 15.53804671
  11.43717215  8.62978710 15.37231639
  11.11804156  9.00930023 18.22473804



--------------------------------------------------------------------------------------------------------


 k-point  1 :   0.0000 0.0000 0.0000  plane waves:  289505
 k-point  2 :   0.3333 0.0000 0.0000  plane waves:  289422
 k-point  3 :   0.0000 0.3333 0.0000  plane waves:  289550
 k-point  4 :   0.3333 0.3333 0.0000  plane waves:  289551
 k-point  5 :  -0.3333 0.3333 0.0000  plane waves:  289551

 maximum and minimum number of plane-waves per node :     72451    72309

 maximum number of plane-waves:    289551
 maximum index in each direction: 
   IXMAX=   43   IYMAX=   33   IZMAX=   49
   IXMIN=  -43   IYMIN=  -33   IZMIN=  -49


 real space projection operators:
  total allocation   :      13779.80 KBytes
  max/ min on nodes  :       3449.98       3441.86


 parallel 3D FFT for wavefunctions:
    minimum data exchange during FFTs selected (reduces bandwidth)
 parallel 3D FFT for charge:
    minimum data exchange during FFTs selected (reduces bandwidth)


 total amount of memory used by VASP MPI-rank0   697374. kBytes
=======================================================================

   base      :      30000. kBytes
   nonlr-proj:      16938. kBytes
   fftplans  :      30982. kBytes
   grid      :      57864. kBytes
   one-center:       1073. kBytes
   wavefun   :     560517. kBytes

     INWAV:  cpu time    0.0001: real time    0.0000
 Broyden mixing: mesh for mixing (old mesh)
   NGX = 85   NGY = 67   NGZ = 99
  (NGX  =256   NGY  =200   NGZ  =300)
  gives a total of 563805 points

 initial charge density was supplied:
 charge density of overlapping atoms calculated
 number of electron    1258.0000000 magnetization 
 keeping initial charge density in first step


--------------------------------------------------------------------------------------------------------


 Maximum index for non-local projection operator          649
 Maximum index for augmentation-charges          404 (set IRDMAX)


--------------------------------------------------------------------------------------------------------


 First call to EWALD:  gamma=   0.079
 Maximum number of real-space cells 3x 3x 2
 Maximum number of reciprocal cells 3x 2x 3

    FEWALD:  cpu time    0.0274: real time    0.0275


--------------------------------------- Iteration      1(   1)  ---------------------------------------


    POTLOK:  cpu time    0.2777: real time    0.2862
    SETDIJ:  cpu time    0.5729: real time    0.5745
     EDDAV:  cpu time   80.4991: real time   80.8097
       DOS:  cpu time    0.0020: real time    0.0020
    --------------------------------------------
      LOOP:  cpu time   81.3517: real time   81.6725

 eigenvalue-minimisations  :  8592
 total energy-change (2. order) : 0.1294465E+05  (-0.4967191E+05)
 number of electron    1258.0000000 magnetization 
 augmentation part     1258.0000000 magnetization 

 DIPCOR: dipole corrections for dipol
 direction  3 min pos    75,
 dipolmoment           0.000000      0.000000      3.949887 electrons x Angstroem
 Tr[quadrupol]    -95776.127923

 energy correction for charged system         0.000000 eV
 dipol+quadrupol energy correction           -0.126849 eV
 added-field ion interaction        524.081214 eV  (added to PSCEN)


 Free energy of the ion-electron system (eV)
  ---------------------------------------------------
  alpha Z        PSCENC =      1014.11731818
  Ewald energy   TEWEN  =    303743.80629850
  -Hartree energ DENC   =   -365963.99886770
  -exchange      EXHF   =         0.00000000
  -V(xc)+E(xc)   XCENC  =      3777.65861327
  PAW double counting   =     59955.48764796   -58973.29898038
  entropy T*S    EENTRO =        -1.67166254
  eigenvalues    EBANDS =     -5314.69675915
  atomic energy  EATOM  =     74707.24229009
  Solvation  Ediel_sol  =         0.00000000
  ---------------------------------------------------
  free energy    TOTEN  =     12944.64589821 eV

  energy without entropy =    12946.31756075  energy(sigma->0) =    12945.48172948


--------------------------------------------------------------------------------------------------------




--------------------------------------- Iteration      1(   2)  ---------------------------------------


     EDDAV:  cpu time   96.5133: real time   96.8767
       DOS:  cpu time    0.0016: real time    0.0016
    --------------------------------------------
      LOOP:  cpu time   96.5149: real time   96.8783

 eigenvalue-minimisations  : 10688
 total energy-change (2. order) :-0.1232293E+05  (-0.1193281E+05)
 number of electron    1258.0000000 magnetization 
 augmentation part     1258.0000000 magnetization 

 DIPCOR: dipole corrections for dipol
 direction  3 min pos    75,
 dipolmoment           0.000000      0.000000      3.949887 electrons x Angstroem
 Tr[quadrupol]    -95776.127923

 energy correction for charged system         0.000000 eV
 dipol+quadrupol energy correction           -0.126849 eV
 added-field ion interaction        524.081214 eV  (added to PSCEN)


 Free energy of the ion-electron system (eV)
  ---------------------------------------------------
  alpha Z        PSCENC =      1014.11731818
  Ewald energy   TEWEN  =    303743.80629850
  -Hartree energ DENC   =   -365963.99886770
  -exchange      EXHF   =         0.00000000
  -V(xc)+E(xc)   XCENC  =      3777.65861327
  PAW double counting   =     59955.48764796   -58973.29898038
  entropy T*S    EENTRO =        -0.00011955
  eigenvalues    EBANDS =    -17639.30121226
  atomic energy  EATOM  =     74707.24229009
  Solvation  Ediel_sol  =         0.00000000
  ---------------------------------------------------
  free energy    TOTEN  =       621.71298809 eV

  energy without entropy =      621.71310764  energy(sigma->0) =      621.71304786


--------------------------------------------------------------------------------------------------------




--------------------------------------- Iteration      1(   3)  ---------------------------------------


     EDDAV:  cpu time   83.1738: real time   83.4841
       DOS:  cpu time    0.0019: real time    0.0019
    --------------------------------------------
      LOOP:  cpu time   83.1757: real time   83.4860

 eigenvalue-minimisations  :  8928
 total energy-change (2. order) :-0.2635371E+04  (-0.2625251E+04)
 number of electron    1258.0000000 magnetization 
 augmentation part     1258.0000000 magnetization 

 DIPCOR: dipole corrections for dipol
 direction  3 min pos    75,
 dipolmoment           0.000000      0.000000      3.949887 electrons x Angstroem
 Tr[quadrupol]    -95776.127923

 energy correction for charged system         0.000000 eV
 dipol+quadrupol energy correction           -0.126849 eV
 added-field ion interaction        524.081214 eV  (added to PSCEN)


 Free energy of the ion-electron system (eV)
  ---------------------------------------------------
  alpha Z        PSCENC =      1014.11731818
  Ewald energy   TEWEN  =    303743.80629850
  -Hartree energ DENC   =   -365963.99886770
  -exchange      EXHF   =         0.00000000
  -V(xc)+E(xc)   XCENC  =      3777.65861327
  PAW double counting   =     59955.48764796   -58973.29898038
  entropy T*S    EENTRO =        -0.14055470
  eigenvalues    EBANDS =    -20274.53161427
  atomic energy  EATOM  =     74707.24229009
  Solvation  Ediel_sol  =         0.00000000
  ---------------------------------------------------
[...]
     20.26706     17.52644     12.55557        -0.050356      1.297553     -1.002878
      7.04790     13.78912     12.31057        -0.263012     -0.088990     -0.081540
      9.87046      4.73421     10.20483         0.412679      0.026472      0.510080
     18.99308      8.43408     13.98387         0.001746      0.001565      0.003531
     23.04023      1.31667     14.00811        -0.001482      0.001010      0.006739
     12.05955      8.07218     16.83670        -0.001551      0.010963      0.017147
      0.80854     16.67059     11.54386        -0.111968      0.449774     -0.284147
     22.54593      5.49427      9.44299         0.182661     -0.185097      0.406084
      1.63005      6.09065     10.11814         0.299864     -0.128784     -0.036806
      4.87647     13.20394     10.62861         0.430691     -0.160798      0.419265
      0.91073      7.59465     13.41772         0.442998      0.053343      0.176062
      5.60732      5.17951     15.80309        -0.006482      0.002983     -0.003781
      9.31481      3.52786     17.32388        -0.005032     -0.004375      0.009768
     10.82646     10.12909     15.87519         0.003740      0.004052      0.005600
     21.30247     13.57710     14.98517        -0.002407     -0.006868      0.002876
     20.34739      1.95788     11.88993        -0.080571     -0.044193      0.427424
     13.40476     12.09288     10.11169        -0.267006      0.185158      0.108308
      3.33439      2.88355     10.10740        -0.022405     -0.059776      0.182670
      8.21708     13.86473     16.30160        -0.006478      0.000427      0.003613
     21.32760     15.31331     12.98949         0.326054     -1.486504      0.180699
      1.43600      9.72878     11.88926         0.539492      0.275577      0.051454
     16.58313     10.06030     11.28988        -0.143699     -0.553745     -0.034812
      1.76725     14.80155     12.98451        -0.018714     -6.364910      0.287564
     16.39879     14.99633     11.63069         1.809122     -3.832607     -0.223770
     17.09613      0.88895     14.59691        -0.009378      0.000590     -0.003823
     21.50945      5.46492     16.99569        -0.008093     -0.000281     -0.002475
     17.22422     15.46759     16.47852        -0.000973     -0.012435      0.000069
     14.63491      9.55703     13.07550         1.761716     -1.070043     -0.986359
     13.03010     11.41100     12.56124        -3.493402     -2.791438      1.879513
      9.97061      4.45646     14.91901         0.003721      0.004001     -0.015437
     22.90304     13.19668     12.81787         0.424535      0.293523      0.230544
     15.32886     10.78302     17.03977        -0.017449     -0.004000      0.007227
      9.30123     13.52554     13.84657        -0.010395      0.011635     -0.001664
     14.10975      9.38074     10.36813         0.270464     -0.114687      0.379439
     16.83937     11.44995     14.97684        -0.006271     -0.006215      0.002029
      3.43175      6.59720     16.66439         0.012414     -0.007375     -0.001836
      1.55775      9.94006     14.56950        -0.010994      0.007212      0.005614
     19.17302     16.03539     14.42568         0.004515     -0.003108      0.001654
     19.38960      6.44002     12.14868        -0.143108      0.248629      0.188720
     12.35089      5.41422     14.32001        -0.025501     -0.000500     -0.000102
     17.25441      9.05770     16.00179         0.012972     -0.000291     -0.009968
     13.05025      3.12466     10.61647        -1.377377     -1.814868      0.518043
     18.86866      4.64651     10.30420        -0.045430     -0.025111      0.748550
      5.55892     17.27408     13.65459        -0.785146      0.175397     -0.922485
     16.22681     14.08381     14.54701        -0.007110      0.001196      0.010872
     21.63325     17.21464     14.86045         0.004295     -0.000921     -0.003652
     12.30819      5.75859     10.71453        -7.876261      6.661575      3.193101
     10.97389     17.94541     14.67187         0.006922     -0.004387     -0.004651
     19.61172      1.72042     14.51044        -0.003697      0.005125     -0.000178
     12.59301      2.10963     13.07169        -2.100548      0.600273     -1.066954
      8.19848      3.38158     11.81891        -0.095004      0.160509      0.020594
      0.27532     17.44013      9.01248        -0.251504      0.112052      0.316382
     10.67228     10.88062     18.28107         0.006537     -0.005793      0.006613
     15.33358     16.76935     10.19493        -0.569128      0.123257      0.617260
      1.78613     12.43164     11.71795         0.021366     -0.136341      0.094813
     10.57617      7.32353     14.81367        -0.006673     -0.002631     -0.008690
     16.83786     12.69249     10.20447        -0.061615      0.274667      0.486250
     10.56624     12.76269     16.09988         0.023995     -0.002145      0.003667
     17.61819     12.85384     12.80443        -0.378645      0.240157     -1.102239
     18.22401      2.20016     16.68435         0.009111      0.005675     -0.014678
     23.25384      5.58159     12.05458         0.247111      0.006839     -0.035192
     12.46315      9.20220     14.24071        -0.016152     -0.000165      0.003148
     19.12182      9.04362     11.38355         0.325237     -0.384739      0.422676
      5.51833      2.62660     16.27222        -0.001433      0.004075     -0.007916
      4.76498     15.05334     12.64953         0.603118     -6.691005      0.314967
      5.61893     10.12312     14.05450        -0.008959      0.000972      0.008344
      1.42926     11.33373     16.76506        -0.011084     -0.007259     -0.000080
      1.07865     10.91527      9.52151         0.185144      0.222071      0.429601
     18.75915     17.74342     16.28446         0.002060      0.010268      0.002565
     12.59506      0.50191     10.87440        -0.224900      0.376212      0.159845
     14.20034      5.66479     16.26730         0.001796     -0.003052     -0.020550
     20.16991      0.07395      9.92551        -0.071714      0.004518      0.288202
      2.22200      2.70048     12.55675        -0.049339     -0.058781     -0.814660
      4.01619      3.69397     14.26611         0.002894      0.005770      0.002072
     15.00637     12.76530     12.22697         2.610053      0.182625     -0.596039
     10.22577      7.42551     10.38809         0.259314     -0.703167      0.524981
     13.45099      1.06619     15.35276        -0.000284     -0.010060      0.003882
      3.54535     10.75329     10.45651         0.009265      0.706657      0.071321
      6.26814     10.91510     10.54651         0.169165      0.312267      0.037462
     10.30702      5.83863     12.64390         0.354889     -0.033188     -0.995608
      5.57211      2.87242     11.55719         0.327097      0.280333     -0.373954
      1.70522      2.72445     15.12414        -0.001287     -0.011916      0.005108
     19.79188      9.85734     16.12909        -0.001886     -0.001140      0.005854
     14.54261      5.07286     11.04652         1.375226      0.654506      0.829466
     14.10921     16.15557     12.56054        23.529525     14.642993     -4.545093
      0.73477      3.53889     10.45741         0.414967      0.157405      0.262266
     14.23141      3.54615     14.70381        -0.010752      0.000997      0.008157
      3.10901     17.00415     12.89023         0.029566     -0.146803     -0.341988
      1.87890      5.08094     13.75304         0.009078      0.004714      0.000493
      8.72750      1.88647     15.27479        -0.004385     -0.000837     -0.004977
      1.56109     12.63120     14.40136         0.002636     -0.013457      0.005867
     15.60336      7.52729     11.56016        -0.338673      0.232970      0.447441
     18.71608     13.22589     15.16622         0.018316      0.008238      0.008016
     16.47777     17.34580     12.64014        -0.784729      0.354115     -0.221238
     13.93918     11.45874     14.92427         0.011407      0.009662      0.002337
     16.92263      5.32193     12.14236         0.230409      0.060551     -0.029711
     22.88524      5.69234     14.71224         0.004753      0.001454     -0.003827
      3.70876     11.41656     15.33853        -0.023156     -0.016794      0.004286
     14.82717      5.92171     13.65139         0.355042      0.240058     -0.720207
     19.18451      7.18200     16.28090         0.013058     -0.016556     -0.012325
     22.44156      0.49368     11.20910        -0.293484     -0.375580     -0.335895
      6.60517      3.53520     13.94317        -0.001138      0.000940      0.001166
      5.83544      8.02830     12.39473        -0.025900     -0.724708     -0.637221
      6.38695     15.38951     15.28022        -0.001221     -0.017578      0.006382
      4.76814     12.42343     13.08921         0.273177      0.537347     -0.368131
      3.44435      8.62698     13.24127        -0.307271      0.078069      0.176903
      5.25657      7.65428     14.96713         0.003706      0.006380     -0.007282
     21.33745      8.20429     12.73516        -0.248922     -0.143656     -0.148304
     20.36287     12.76750     12.47801         0.314630      0.273526      0.431665
     17.28035      1.68228     11.96927        -0.174608     -0.267473      0.471558
      5.20160     16.84879     10.96698        -0.325969      0.366810      0.358550
      5.88758      7.28484     17.46331        -0.003606      0.003383     -0.014601
     14.77571     16.01940     15.95068         0.020015      0.008565      0.005996
      9.60386     14.29879     11.38342        -0.520099     -0.402936      0.287528
     21.48622      3.55246     13.66334        -0.761799     -0.040995     -0.127265
      3.10310      8.03742      8.93261         0.097494     -0.237023      0.309810
      3.63221      5.50022      8.34891        -0.159523      0.551753      0.351988
      8.73253      2.37220      9.35416         0.192155      0.603794      0.338500
      0.80882      5.29061     17.02925         0.002134      0.002732     -0.000842
     13.40740      4.65477      8.60536        -0.205438      0.165080      0.216063
      5.75866     13.94675     17.47147        -0.002511      0.008913      0.017025
      4.85490     11.74990      8.34377         0.082735     -0.128334      0.507609
      6.44687      7.10699      9.87630         0.028921      0.050529      0.692979
      8.55334     10.82901      9.20005        -0.079413     -0.020940      0.746361
      5.29987      1.01807      9.62744        -0.069892      0.786638      0.110085
      5.64688      3.55318      8.85385        -0.372792     -0.057165      0.446082
     11.73545     16.16961     12.22768        -2.212512      1.010991     -0.683065
     12.89191     14.99999     14.36601        -0.004446      0.002299      0.000850
     12.80436     11.85544     17.14854        -0.004934      0.010921     -0.013494
     11.20365      2.20427     16.02605         0.000331      0.000114      0.008084
      6.15383     12.57570     15.28117         0.015920      0.018013      0.002959
     10.37304     15.35123     15.63123        -0.013466      0.002057     -0.000565
     17.93598     11.19318     17.45378         0.020820      0.001111      0.006073
     19.78813     15.07575     16.74535        -0.001891      0.005897      0.004441
     15.02821     13.41724     16.69257        -0.025100      0.006155     -0.015023
      0.19088      0.60667     16.21065         0.008540      0.002734     -0.012487
      6.66670      0.02813     15.95485        -0.008345     -0.005546     -0.001108
     11.79847     17.60320     16.88657        -0.007975      0.007380     -0.000529
     10.72889      8.08148     19.60221         0.018444     -0.011909     -0.030173
      1.94841     10.98909     10.92575        -0.074183     -0.145061      0.071584
      9.58314     13.88311     15.43611         0.009742     -0.000183     -0.010414
     19.70678      7.99968     12.57709         0.138137     -0.161085     -0.245734
      0.40009     17.94876     10.58160         0.093305     -0.127266      0.334382
      0.34415      5.14988     10.51358         0.037501      0.033444      0.099625
      0.21873      2.08556     15.39142         0.007616     -0.002357     -0.003911
     14.29656     11.94307     16.45235         0.013898      0.006781      0.008487
      5.00903      8.62107     13.70508        -0.000906      0.001064     -0.001867
     21.42279     13.69170     13.34099         0.223058      0.253834     -0.662889
     12.18742      2.00159     11.45195         0.168450     -0.074781      0.498190
      9.80173      3.05829     15.83374         0.009428     -0.002079      0.009102
      1.95373      2.52197     10.94102         0.067761     -0.111269      0.105308
     16.43234      0.81267     13.10088         0.103013     -0.073057     -0.282778
     15.56990     16.27355     11.76084        -0.458888      4.567104     -0.189618
     15.21965      9.13359     11.56390         0.136739      0.013558      0.176427
      4.64622     16.53531     12.47363        -0.749140      6.176375     -0.349636
      5.01338      6.64031     16.22884         0.002736      0.005557      0.007218
     15.79181     14.76229     15.98005        -0.016045     -0.004640      0.006093
      5.07422     11.62467     14.47693        -0.004021     -0.014439     -0.008969
      8.63383     13.32142     12.34509        -0.360199     -0.001214     -0.122782
     18.68305     16.10972     16.01459         0.001310     -0.001293     -0.006209
     20.60009     16.53307     13.76366         0.008333      0.001243     -0.005745
     13.49114     10.41162     13.76484         0.001019     -0.015426     -0.026749
     13.81190      2.09581     14.11684         0.003347      0.003272      0.004253
     20.08975      2.75648     13.31200        -0.165744      0.019174     -0.426544
     19.57145     10.94190     17.36382        -0.006238      0.002717      0.005643
      3.13099      6.52942      9.59393        -0.105306     -0.118990      0.075477
     18.51026      5.07285     11.87902        -0.254920      0.094993      0.106845
      9.34523      3.21643     10.64590        -0.154945     -0.313431      0.246867
     20.04501     13.59577     16.03639        -0.001806     -0.005416     -0.011967
      6.62703     16.92904     14.77118         0.021283      0.032223      0.002263
      0.54021      5.98812     13.50205         0.279914      0.183050     -0.361056
     13.45118     12.60314     11.70944         3.944203     -0.796558     -2.509807
      5.39024     13.63805     12.15046         0.080786     -0.599730      0.035928
     13.90463      5.14836     14.74379         0.008329     -0.009196      0.005768
     22.82877      4.93452     16.20343         0.000396      0.000292     -0.000424
     20.81045      0.46044     11.40393         0.017960      0.045068      0.140756
      2.45183      3.54239     13.91894         0.004799      0.001143     -0.007061
      1.12715     13.28354     12.97472        -0.144291     -0.549245     -0.235000
      5.43002      3.72821     15.08251        -0.004073      0.003412     -0.002197
     13.14328      4.67139     10.24864         8.360218     -5.365331     -3.570987
     11.23543     11.47385     16.81761        -0.013354     -0.003514     -0.008791
      6.59450     13.95388     16.06634         0.000167     -0.006305     -0.012909
      4.88127     11.65920      9.99509         0.048988     -0.069400      0.036562
     17.33557     12.88963     14.40562         0.005540      0.001186     -0.002674
     23.10264     17.95150     14.79511        -0.004787      0.000470      0.002024
     16.46059     13.35206     11.67438        -0.635766     -1.328326      0.373038
     18.44641      1.08198     15.50657         0.004390     -0.002421     -0.008327
     10.68290      5.95195     11.00304        -1.163065      0.513455      0.447159
     10.53530     16.96357     15.97225         0.017003      0.012961     -0.007232
     11.91549      0.74048     15.74889         0.000275     -0.002267     -0.003889
      5.71814      6.71222     11.31648         0.010700     -0.121844     -0.074957
     15.41693      5.98005     12.10687        -0.133761     -0.503738     -0.777585
     10.77424      5.74421     14.21010        -0.006972     -0.004665      0.007904
      7.89661     10.69049     10.72869        -0.162819     -0.091551     -0.061884
     18.80911      8.63576     15.58884        -0.022108      0.012869     -0.014210
      1.62029     16.28844     12.91761        -0.328817      6.410952     -0.506720
      4.96103      2.61769     10.04353        -0.083897     -0.032561      0.090275
      1.83153      8.95162     13.29887         0.047422     -0.156639     -0.295647
     13.05344     15.44546     12.76235       -22.263869    -15.815745      4.749571
     16.82772     10.60631     16.39133         0.015227     -0.019069     -0.016282
      6.71066      3.80730     12.34244        -0.241290      0.003532     -0.718685
      2.06460     11.33634     15.26053         0.008031      0.005351     -0.002540
      8.27796      0.33809     15.53805         0.000302      0.003755     -0.006453
     11.43717      8.62979     15.37232         0.020046     -0.029930     -0.008377
     11.11804      9.00930     18.22474        -0.008843     -0.037767      0.019884
 -----------------------------------------------------------------------------------
    total drift:                                0.344868      0.161727      0.049261


--------------------------------------------------------------------------------------------------------



  FREE ENERGIE OF THE ION-ELECTRON SYSTEM (eV)
  ---------------------------------------------------
  free  energy   TOTEN  =     -1885.51896624 eV

  energy  without entropy=    -1885.51878537  energy(sigma->0) =    -1885.51887580



--------------------------------------------------------------------------------------------------------


    POTLOK:  cpu time    0.8390: real time    0.8416


--------------------------------------------------------------------------------------------------------


 stress matrix after NEB project (eV)
    -32.25921      0.14354      0.18110
      0.14354    -33.20833     -0.17677
      0.18110     -0.17677    -25.18599
  FORCES: max atom, RMS     0.043588    0.011241
  FORCE total and by dimension    0.186755    0.037767
  Stress total and by dimension   52.706293   33.208331
 Quasi-Newton relaxation of ions (Broydens 2nd method)
  g(Force)  = 0.168E-02   g(Stress)= 0.000E+00

 Reset! Starting new Quasi-Newton update for ions 


--------------------------------------------------------------------------------------------------------


  
 reached required accuracy - stopping structural energy minimisation
     LOOP+:  cpu time 1245.3630: real time 1250.1170
    4ORBIT:  cpu time    0.0000: real time    0.0000

 total amount of memory used by VASP MPI-rank0   697374. kBytes
=======================================================================

   base      :      30000. kBytes
   nonlr-proj:      16938. kBytes
   fftplans  :      30982. kBytes
   grid      :      57864. kBytes
   one-center:       1073. kBytes
   wavefun   :     560517. kBytes

  
  
 General timing and accounting informations for this job:
 ========================================================
  
                  Total CPU time used (sec):     1350.134
                            User time (sec):     1346.807
                          System time (sec):        3.328
                         Elapsed time (sec):     1357.670
  
                   Maximum memory used (kb):      990308.
                   Average memory used (kb):           0.
  
                          Minor page faults:      3192256
                          Major page faults:          184
                 Voluntary context switches:         5510
