 vasp.5.4.4.18Apr17-6-g9f103f2a35 (build Oct 20 2021 08:33:53) complex           
 executed on             LinuxGNU date 2025.03.29  23:19:54
 running on   32 total cores
 each image running on    4 cores
 distrk:  each k-point on    4 cores,    1 groups
 distr:  one band on NCORES_PER_BAND=   4 cores,    1 groups


--------------------------------------------------------------------------------------------------------


 INCAR:
 POTCAR:    PAW_PBE C 08Apr2002                   
 POTCAR:    PAW_PBE H 15Jun2001                   
 POTCAR:    PAW_PBE O 08Apr2002                   
 POTCAR:    PAW_PBE Si 05Jan2001                  
 POTCAR:    PAW_PBE W 08Apr2002                   
 POTCAR:    PAW_PBE C 08Apr2002                   
   VRHFIN =C: s2p2                                                              
   LEXCH  = PE                                                                  
   EATOM  =   147.1560 eV,   10.8157 Ry                                         
                                                                                
   TITEL  = PAW_PBE C 08Apr2002                                                 
   LULTRA =        F    use ultrasoft PP ?                                      
   IUNSCR =        1    unscreen: 0-lin 1-nonlin 2-no                           
   RPACOR =    1.200    partial core radius                                     
   POMASS =   12.011; ZVAL   =    4.000    mass and valenz                      
   RCORE  =    1.500    outmost cutoff radius                                   
   RWIGS  =    1.630; RWIGS  =    0.863    wigner-seitz radius (au A)           
   ENMAX  =  400.000; ENMIN  =  300.000 eV                                      
   ICORE  =        2    local potential                                         
   LCOR   =        T    correct aug charges                                     
   LPAW   =        T    paw PP                                                  
   EAUG   =  644.873                                                            
   DEXC   =    0.000                                                            
   RMAX   =    1.529    core radius for proj-oper                               
   RAUG   =    1.300    factor for augmentation sphere                          
   RDEP   =    1.501    radius for radial grids                                 
   RDEPT  =    1.300    core radius for aug-charge                              
                                                                                
   Atomic configuration                                                         
    4 entries                                                                   
     n  l   j            E        occ.                                          
     1  0  0.50      -273.3789   2.0000                                         
     2  0  0.50       -13.7508   2.0000                                         
     2  1  0.50        -5.2854   2.0000                                         
     3  2  1.50        -5.4423   0.0000                                         
   Description                                                                  
     l       E           TYP  RCUT    TYP  RCUT                                 
     0    -13.7508458     23  1.200                                             
     0     -8.2022199     23  1.200                                             
     1     -5.2854383     23  1.500                                             
     1     34.0145650     23  1.500                                             
     2     -5.4423304      7  1.500                                             
  local pseudopotential read in
  partial core-charges read in
  partial kinetic energy density read in
  atomic valenz-charges read in
  non local Contribution for L=           0  read in
    real space projection operators read in
  non local Contribution for L=           0  read in
    real space projection operators read in
  non local Contribution for L=           1  read in
    real space projection operators read in
  non local Contribution for L=           1  read in
    real space projection operators read in
    PAW grid and wavefunctions read in

   number of l-projection  operators is LMAX  =           4
   number of lm-projection operators is LMMAX =           8

 POTCAR:    PAW_PBE H 15Jun2001                   
   VRHFIN =H: ultrasoft test                                                    
   LEXCH  = PE                                                                  
   EATOM  =    12.4884 eV,    0.9179 Ry                                         
                                                                                
   TITEL  = PAW_PBE H 15Jun2001                                                 
   LULTRA =        F    use ultrasoft PP ?                                      
   IUNSCR =        0    unscreen: 0-lin 1-nonlin 2-no                           
   RPACOR =    0.000    partial core radius                                     
   POMASS =    1.000; ZVAL   =    1.000    mass and valenz                      
   RCORE  =    1.100    outmost cutoff radius                                   
   RWIGS  =    0.700; RWIGS  =    0.370    wigner-seitz radius (au A)           
   ENMAX  =  250.000; ENMIN  =  200.000 eV                                      
   RCLOC  =    0.701    cutoff for local pot                                    
   LCOR   =        T    correct aug charges                                     
   LPAW   =        T    paw PP                                                  
   EAUG   =  400.000                                                            
   RMAX   =    1.123    core radius for proj-oper                               
   RAUG   =    1.200    factor for augmentation sphere                          
   RDEP   =    1.112    radius for radial grids                                 
   RDEPT  =    0.926    core radius for aug-charge                              
                                                                                
   Atomic configuration                                                         
    2 entries                                                                   
     n  l   j            E        occ.                                          
     1  0  0.50        -6.4927   1.0000                                         
     2  1  0.50        -3.4015   0.0000                                         
   Description                                                                  
     l       E           TYP  RCUT    TYP  RCUT                                 
     0     -6.4927494     23  1.100                                             
     0      6.8029130     23  1.100                                             
     1     -4.0817478     23  1.100                                             
  local pseudopotential read in
  atomic valenz-charges read in
  non local Contribution for L=           0  read in
    real space projection operators read in
  non local Contribution for L=           0  read in
    real space projection operators read in
  non local Contribution for L=           1  read in
    real space projection operators read in
    PAW grid and wavefunctions read in

   number of l-projection  operators is LMAX  =           3
   number of lm-projection operators is LMMAX =           5

 POTCAR:    PAW_PBE O 08Apr2002                   
   VRHFIN =O: s2p4                                                              
   LEXCH  = PE                                                                  
   EATOM  =   432.3788 eV,   31.7789 Ry                                         
                                                                                
   TITEL  = PAW_PBE O 08Apr2002                                                 
   LULTRA =        F    use ultrasoft PP ?                                      
   IUNSCR =        1    unscreen: 0-lin 1-nonlin 2-no                           
   RPACOR =    1.200    partial core radius                                     
   POMASS =   16.000; ZVAL   =    6.000    mass and valenz                      
   RCORE  =    1.520    outmost cutoff radius                                   
   RWIGS  =    1.550; RWIGS  =    0.820    wigner-seitz radius (au A)           
   ENMAX  =  400.000; ENMIN  =  300.000 eV                                      
   ICORE  =        2    local potential                                         
   LCOR   =        T    correct aug charges                                     
   LPAW   =        T    paw PP                                                  
   EAUG   =  605.392                                                            
   DEXC   =    0.000                                                            
   RMAX   =    1.553    core radius for proj-oper                               
   RAUG   =    1.300    factor for augmentation sphere                          
   RDEP   =    1.550    radius for radial grids                                 
   RDEPT  =    1.329    core radius for aug-charge                              
                                                                                
   Atomic configuration                                                         
    4 entries                                                                   
     n  l   j            E        occ.                                          
     1  0  0.50      -514.6923   2.0000                                         
     2  0  0.50       -23.9615   2.0000                                         
     2  1  0.50        -9.0305   4.0000                                         
     3  2  1.50        -9.5241   0.0000                                         
   Description                                                                  
     l       E           TYP  RCUT    TYP  RCUT                                 
     0    -23.9615318     23  1.200                                             
     0     -9.5240782     23  1.200                                             
     1     -9.0304911     23  1.520                                             
     1      8.1634956     23  1.520                                             
     2     -9.5240782      7  1.500                                             
  local pseudopotential read in
  partial core-charges read in
  partial kinetic energy density read in
  kinetic energy density of atom read in
  atomic valenz-charges read in
  non local Contribution for L=           0  read in
    real space projection operators read in
  non local Contribution for L=           0  read in
    real space projection operators read in
  non local Contribution for L=           1  read in
    real space projection operators read in
  non local Contribution for L=           1  read in
    real space projection operators read in
    PAW grid and wavefunctions read in

   number of l-projection  operators is LMAX  =           4
   number of lm-projection operators is LMMAX =           8

 POTCAR:    PAW_PBE Si 05Jan2001                  
   VRHFIN =Si: s2p2                                                             
   LEXCH  = PE                                                                  
   EATOM  =   103.0669 eV,    7.5752 Ry                                         
                                                                                
   TITEL  = PAW_PBE Si 05Jan2001                                                
   LULTRA =        F    use ultrasoft PP ?                                      
   IUNSCR =        1    unscreen: 0-lin 1-nonlin 2-no                           
   RPACOR =    1.500    partial core radius                                     
   POMASS =   28.085; ZVAL   =    4.000    mass and valenz                      
   RCORE  =    1.900    outmost cutoff radius                                   
   RWIGS  =    2.480; RWIGS  =    1.312    wigner-seitz radius (au A)           
   ENMAX  =  245.345; ENMIN  =  184.009 eV                                      
   ICORE  =        2    local potential                                         
   LCOR   =        T    correct aug charges                                     
   LPAW   =        T    paw PP                                                  
   EAUG   =  322.069                                                            
   DEXC   =    0.000                                                            
   RMAX   =    1.950    core radius for proj-oper                               
   RAUG   =    1.300    factor for augmentation sphere                          
   RDEP   =    1.993    radius for radial grids                                 
   RDEPT  =    1.837    core radius for aug-charge                              
                                                                                
   Atomic configuration                                                         
    6 entries                                                                   
     n  l   j            E        occ.                                          
     1  0  0.50     -1785.8828   2.0000                                         
     2  0  0.50      -139.4969   2.0000                                         
     2  1  1.50       -95.5546   6.0000                                         
     3  0  0.50       -10.8127   2.0000                                         
     3  1  0.50        -4.0811   2.0000                                         
     3  2  1.50        -4.0817   0.0000                                         
   Description                                                                  
     l       E           TYP  RCUT    TYP  RCUT                                 
     0    -10.8127223     23  1.900                                             
     0     -7.6451159     23  1.900                                             
     1     -4.0811372     23  1.900                                             
     1      2.4879257     23  1.900                                             
     2     -4.0817478      7  1.900                                             
  local pseudopotential read in
  partial core-charges read in
  partial kinetic energy density read in
  atomic valenz-charges read in
  non local Contribution for L=           0  read in
    real space projection operators read in
  non local Contribution for L=           0  read in
    real space projection operators read in
  non local Contribution for L=           1  read in
    real space projection operators read in
  non local Contribution for L=           1  read in
    real space projection operators read in
    PAW grid and wavefunctions read in

   number of l-projection  operators is LMAX  =           4
   number of lm-projection operators is LMMAX =           8

 POTCAR:    PAW_PBE W 08Apr2002                   
   VRHFIN =W : 6s5d                                                             
   LEXCH  = PE                                                                  
   EATOM  =   204.6103 eV,   15.0384 Ry                                         
                                                                                
   TITEL  = PAW_PBE W 08Apr2002                                                 
   LULTRA =        F    use ultrasoft PP ?                                      
   IUNSCR =        1    unscreen: 0-lin 1-nonlin 2-no                           
   RPACOR =    2.330    partial core radius                                     
   POMASS =  183.850; ZVAL   =    6.000    mass and valenz                      
   RCORE  =    2.750    outmost cutoff radius                                   
   RWIGS  =    2.750; RWIGS  =    1.455    wigner-seitz radius (au A)           
   ENMAX  =  223.057; ENMIN  =  167.293 eV                                      
   RCLOC  =    2.147    cutoff for local pot                                    
   LCOR   =        T    correct aug charges                                     
   LPAW   =        T    paw PP                                                  
   EAUG   =  373.438                                                            
   DEXC   =    0.000                                                            
   RMAX   =    2.801    core radius for proj-oper                               
   RAUG   =    1.300    factor for augmentation sphere                          
   RDEP   =    2.886    radius for radial grids                                 
   RDEPT  =    2.230    core radius for aug-charge                              
                                                                                
   Atomic configuration                                                         
   16 entries                                                                   
     n  l   j            E        occ.                                          
     1  0  0.50    -69465.5836   2.0000                                         
     2  0  0.50    -11986.2642   2.0000                                         
     2  1  1.50    -10479.8616   6.0000                                         
     3  0  0.50     -2759.0758   2.0000                                         
     3  1  1.50     -2313.1857   6.0000                                         
     3  2  2.50     -1801.1185  10.0000                                         
     4  0  0.50      -567.6791   2.0000                                         
     4  1  1.50      -421.4694   6.0000                                         
     4  2  2.50      -236.3473  10.0000                                         
     4  3  3.50       -31.2666  14.0000                                         
     5  0  0.50       -77.1085   2.0000                                         
     5  1  1.50       -41.3856   6.0000                                         
     5  2  2.50        -3.3185   5.0000                                         
     6  0  0.50        -5.1438   1.0000                                         
     6  1  0.50        -3.8096   0.0000                                         
     5  3  2.50        -1.3606   0.0000                                         
   Description                                                                  
     l       E           TYP  RCUT    TYP  RCUT                                 
     2     -3.3185288     23  2.500                                             
     2     -1.5965414     23  2.500                                             
     0     -5.1438054     23  2.500                                             
     0      4.9117504     23  2.500                                             
     1      2.7211652     23  2.750                                             
     1     27.2116520     23  2.750                                             
  local pseudopotential read in
  partial core-charges read in
  partial kinetic energy density read in
  atomic valenz-charges read in
  non local Contribution for L=           2  read in
    real space projection operators read in
  non local Contribution for L=           2  read in
    real space projection operators read in
  non local Contribution for L=           0  read in
    real space projection operators read in
  non local Contribution for L=           0  read in
    real space projection operators read in
  non local Contribution for L=           1  read in
    real space projection operators read in
  non local Contribution for L=           1  read in
    real space projection operators read in
    PAW grid and wavefunctions read in

   number of l-projection  operators is LMAX  =           6
   number of lm-projection operators is LMMAX =          18

 Optimization of the real space projectors (new method)

 maximal supplied QI-value         = 25.13
 optimisation between [QCUT,QGAM] = [ 11.31, 22.87] = [ 35.82,146.48] Ry 
 Optimized for a Real-space Cutoff    1.00 Angstroem

   l    n(q)    QCUT    max X(q) W(low)/X(q) W(high)/X(q)  e(spline) 
   0      7    11.310   115.676    0.43E-03    0.13E-02    0.19E-06
   0      7    11.310    87.132    0.43E-03    0.13E-02    0.18E-06
   1      6    11.310     4.429    0.42E-03    0.74E-03    0.11E-06
   1      6    11.310     2.733    0.34E-03    0.55E-03    0.92E-07
 Optimization of the real space projectors (new method)

 maximal supplied QI-value         = 34.20
 optimisation between [QCUT,QGAM] = [ 11.29, 22.57] = [ 35.68,142.71] Ry 
 Optimized for a Real-space Cutoff    1.16 Angstroem

   l    n(q)    QCUT    max X(q) W(low)/X(q) W(high)/X(q)  e(spline) 
   0      8    11.287    19.460    0.40E-03    0.73E-03    0.16E-06
   0      8    11.287    12.209    0.38E-03    0.70E-03    0.15E-06
   1      7    11.287     4.655    0.22E-03    0.25E-04    0.22E-06
 Optimization of the real space projectors (new method)

 maximal supplied QI-value         = 24.76
 optimisation between [QCUT,QGAM] = [ 11.39, 22.77] = [ 36.31,145.25] Ry 
 Optimized for a Real-space Cutoff    1.00 Angstroem

   l    n(q)    QCUT    max X(q) W(low)/X(q) W(high)/X(q)  e(spline) 
   0      7    11.387    20.381    0.39E-03    0.13E-02    0.15E-06
   0      7    11.387    15.268    0.42E-03    0.14E-02    0.17E-06
   1      6    11.387     5.964    0.41E-03    0.11E-02    0.17E-06
   1      6    11.387     5.382    0.39E-03    0.87E-03    0.15E-06
 Optimization of the real space projectors (new method)

 maximal supplied QI-value         = 19.84
 optimisation between [QCUT,QGAM] = [ 11.31, 22.82] = [ 35.82,145.81] Ry 
 Optimized for a Real-space Cutoff    1.16 Angstroem

   l    n(q)    QCUT    max X(q) W(low)/X(q) W(high)/X(q)  e(spline) 
   0      8    11.310   159.560    0.27E-03    0.30E-03    0.39E-07
   0      8    11.310   115.863    0.27E-03    0.30E-03    0.38E-07
   1      7    11.310    88.339    0.28E-03    0.28E-03    0.77E-07
   1      7    11.310    48.592    0.27E-03    0.27E-03    0.74E-07
 Optimization of the real space projectors (new method)

 maximal supplied QI-value         = 13.61
 optimisation between [QCUT,QGAM] = [ 11.43, 22.86] = [ 36.58,146.31] Ry 
 Optimized for a Real-space Cutoff    1.56 Angstroem

   l    n(q)    QCUT    max X(q) W(low)/X(q) W(high)/X(q)  e(spline) 
   2     10    11.429   130.855    0.22E-03    0.64E-03    0.11E-05
   2     10    11.429   114.007    0.22E-03    0.64E-03    0.11E-05
   0     11    11.429    84.709    0.39E-04    0.67E-04    0.23E-06
   0     11    11.429    49.163    0.35E-04    0.62E-04    0.21E-06
   1     10    11.429    15.765    0.84E-04    0.15E-03    0.24E-06
   1     10    11.429    10.638    0.58E-04    0.12E-03    0.19E-06

 ----------------------------------------------------------------------------- 
|                                                                             |
|  ADVICE TO THIS USER RUNNING 'VASP/VAMP'   (HEAR YOUR MASTER'S VOICE ...):  |
|                                                                             |
|      You enforced a specific xc-type in the INCAR file,                     |
|      a different type was found on the POTCAR file                          |
|          I HOPE YOU KNOW, WHAT YOU ARE  DOING                               |
|                                                                             |
 ----------------------------------------------------------------------------- 

  PAW_PBE C 08Apr2002                   :
 energy of atom  1       EATOM= -147.1560
 kinetic energy error for atom=    0.0076 (will be added to EATOM!!)
  PAW_PBE H 15Jun2001                   :
 energy of atom  2       EATOM=  -12.4884
 kinetic energy error for atom=    0.0020 (will be added to EATOM!!)
  PAW_PBE O 08Apr2002                   :
 energy of atom  3       EATOM= -432.3788
 kinetic energy error for atom=    0.0224 (will be added to EATOM!!)
  PAW_PBE Si 05Jan2001                  :
 energy of atom  4       EATOM= -103.0669
 kinetic energy error for atom=    0.0006 (will be added to EATOM!!)
  PAW_PBE W 08Apr2002                   :
 energy of atom  5       EATOM= -204.6103
 kinetic energy error for atom=    0.0017 (will be added to EATOM!!)


 POSCAR:  C  H  O Si  W                          
  positions in direct lattice
  velocities in cartesian coordinates
 exchange correlation table for  LEXCH =        9
   RHO(1)=    0.500       N(1)  =     2000
   RHO(2)=  100.500       N(2)  =     4000

 VTST: version 3.2, (02/03/18)

 CHAIN: initializing optimizer
 
 OPT: Using Quick-Min optimizer
 OPT: QM, Init
 OPT: QM, MAXMOVE       0.200000
 OPT: QM, TIMESTEP      0.100000
 
 CHAIN: Read ICHAIN            0
 CHAIN: Running the NEB
 NEB:          SPRING     -5.000000
 NEB:          LCLIMB      T
 NEB:     LTANGENTOLD      F
 NEB:           LDNEB      F
 NEB:        LDNEBORG      F
 NEB:        LNEBCELL      F
 NEB:          EFIRST      0.000000
 NEB:           ELAST      0.000000

 POSCAR:  C  H  O Si  W                          
  positions in cartesian coordinates
  No initial velocities read in

 POSCAR:  C  H  O Si  W                          
  positions in cartesian coordinates
  No initial velocities read in



--------------------------------------------------------------------------------------------------------


 ion  position               nearest neighbor table
   1  0.545  0.537  0.745-  48 1.10  47 1.46   2 1.69 270 1.96
   2  0.573  0.456  0.726-  50 1.10  49 1.10  47 1.18   1 1.69 270 2.21
   3  0.762  0.103  0.651- 125 0.97
   4  0.926  0.279  0.356-  73 0.98
   5  0.793  0.207  0.373- 108 0.97
   6  0.975  0.944  0.325- 117 0.97
   7  0.626  0.963  0.375- 119 0.98
   8  0.821  0.995  0.369- 137 0.97
   9  0.750  0.141  0.458- 175 0.98
  10  0.915  0.249  0.510- 180 0.97
  11  0.583  0.304  0.306- 185 0.97
  12  0.892  0.335  0.616-  91 0.98
  13  0.586  0.360  0.613- 136 0.97
  14  0.593  0.870  0.578- 178 0.99
  15  0.034  0.338  0.652- 184 0.97
  16  0.935  0.420  0.454- 173 0.98
  17  0.746  0.530  0.422-  87 1.00
  18  0.799  0.383  0.635- 165 0.97
  19  0.591  0.569  0.378-  99 0.99
  20  0.718  0.646  0.383- 122 0.99
  21  0.841  0.542  0.420- 128 0.98
  22  0.005  0.604  0.358- 133 0.97
  23  0.828  0.712  0.468- 174 0.99
  24  0.877  0.599  0.722-  53 0.97
  25  0.520  0.986  0.422- 135 0.99
  26  0.223  0.980  0.393- 176 1.00
  27  0.216  0.238  0.319- 191 0.99
  28  0.158  0.330  0.279- 182 0.97
  29  0.342  0.156  0.331- 183 0.98
  30  0.223  0.046  0.323- 190 0.97
  31  0.511  0.826  0.547- 193 0.97
  32  0.375  0.239  0.648-  78 0.97
  33  0.244  0.094  0.599- 129 0.98
  34  0.315  0.487  0.442-  52 0.99
  35  0.409  0.439  0.406- 141 0.98
  36  0.398  0.793  0.389- 179 0.97
  37  0.244  0.655  0.294- 187 0.97
  38  0.312  0.418  0.369- 188 0.98
  39  0.405  0.584  0.339- 189 0.97
  40  0.139  0.488  0.352- 181 0.98
  41  0.593  0.698  0.352-  82 0.97
  42  0.469  0.861  0.444- 192 0.99
  43  0.122  0.324  0.612- 101 0.97
  44  0.072  0.665  0.646- 132 0.97
  45  0.243  0.388  0.682- 177 0.97
  46  0.247  0.816  0.670- 186 0.97
  47  0.592  0.489  0.760-   2 1.18   1 1.46
  48  0.572  0.584  0.734-   1 1.10
  49  0.563  0.405  0.746-   2 1.10
  50  0.605  0.454  0.696-   2 1.10
  51  0.369  0.648  0.439- 224 1.66 259 1.68
  52  0.347  0.504  0.420-  34 0.99 259 1.67
  53  0.861  0.566  0.697-  24 0.97 230 1.64
  54  0.349  0.958  0.531- 235 1.68 268 1.69
  55  0.033  0.932  0.529- 250 1.63 261 1.66
  56  0.636  0.079  0.489- 228 1.60 217 1.65
  57  0.069  0.052  0.395- 216 1.64 208 1.65
  58  0.452  0.130  0.421- 233 1.65 214 1.65
  59  0.806  0.214  0.483- 232 1.67 229 1.69
  60  0.974  0.182  0.599- 210 1.63 240 1.65
  61  0.275  0.299  0.449- 256 1.65 266 1.66
  62  0.556  0.775  0.442- 237 1.51 264 1.66
  63  0.392  0.972  0.620- 254 1.65 268 1.66
  64  0.178  0.350  0.405- 256 1.66 231 1.67
  65  0.867  0.684  0.638- 234 1.64 230 1.64
  66  0.866  0.967  0.467- 226 1.60 241 1.65
  67  0.301  0.761  0.458- 224 1.65 238 1.67
  68  0.422  0.261  0.380- 233 1.67 253 1.67
  69  0.811  0.465  0.520- 260 1.63 207 1.64
  70  0.983  0.072  0.521- 250 1.68 210 1.69
  71  0.515  0.462  0.629- 269 1.66 270 1.99
  72  0.035  0.920  0.429- 261 1.64 208 1.65
  73  0.963  0.303  0.351-   4 0.98 209 1.65
  74  0.070  0.336  0.376- 209 1.64 231 1.65
  75  0.208  0.729  0.395- 238 1.66 248 1.67
  76  0.039  0.419  0.499- 263 1.64 236 1.65
  77  0.239  0.286  0.588- 244 1.63 221 1.63
  78  0.398  0.195  0.645-  32 0.97 215 1.64
  79  0.456  0.562  0.581- 246 1.67 269 1.68
  80  0.910  0.749  0.557- 234 1.64 213 1.66
  81  0.869  0.108  0.442- 241 1.64 229 1.65
  82  0.573  0.667  0.376-  41 0.97 237 1.68
  83  0.142  0.159  0.376- 262 1.65 216 1.65
  84  0.350  0.766  0.607- 206 1.62 247 1.64
  85  0.911  0.845  0.483- 226 1.62 213 1.66
  86  0.061  0.537  0.442- 263 1.66 205 1.67
  87  0.708  0.555  0.420-  17 1.00 219 1.67
  88  0.075  0.817  0.483- 261 1.50 243 1.65
  89  0.700  0.828  0.433- 218 1.53 251 1.65
  90  0.730  0.049  0.543- 217 1.64 252 1.64
  91  0.919  0.302  0.632-  12 0.98 240 1.63
  92  0.735  0.852  0.613- 225 1.66 222 1.68
  93  0.625  0.527  0.486- 227 1.58 219 1.68
  94  0.557  0.630  0.467- 237 1.52 227 1.63
  95  0.426  0.246  0.555- 215 1.68 258 1.68
  96  0.978  0.728  0.477- 243 1.65 213 1.65
  97  0.654  0.594  0.633- 265 1.65 211 1.67
  98  0.397  0.746  0.515- 206 1.66 224 1.66
  99  0.603  0.518  0.386-  19 0.99 219 1.65
 100  0.720  0.631  0.557- 249 1.63 265 1.64
 101  0.147  0.365  0.620-  43 0.97 221 1.64
 102  0.066  0.548  0.542- 263 1.63 267 1.64
 103  0.819  0.884  0.536- 226 1.65 225 1.67
 104  0.828  0.355  0.452- 232 1.65 207 1.65
 105  0.528  0.296  0.531- 258 1.61 239 1.63
 106  0.737  0.499  0.596- 265 1.65 260 1.66
 107  0.557  0.172  0.395- 245 1.59 214 1.64
 108  0.806  0.256  0.383-   5 0.97 232 1.67
 109  0.237  0.953  0.508- 235 1.58 220 1.67
 110  0.693  0.776  0.542- 249 1.63 222 1.64
 111  0.923  0.950  0.553- 250 1.65 226 1.65
 112  0.526  0.318  0.399- 245 1.45 253 1.66
 113  0.468  0.990  0.546- 254 1.69 255 1.70
 114  0.838  0.095  0.540- 229 1.66 252 1.66
 115  0.538  0.116  0.486- 228 1.61 214 1.67
 116  0.350  0.187  0.440- 266 1.63 233 1.65
 117  0.012  0.962  0.335-   6 0.97 208 1.65
 118  0.455  0.589  0.675- 246 1.66 270 1.94
 119  0.655  0.925  0.379-   7 0.98 218 1.66
 120  0.076  0.686  0.436- 205 1.65 243 1.66
 121  0.455  0.403  0.554- 269 1.68 258 1.70
 122  0.719  0.700  0.380-  20 0.99 251 1.65
 123  0.450  0.704  0.600- 206 1.63 246 1.63
 124  0.753  0.709  0.476- 249 1.63 251 1.69
 125  0.779  0.120  0.621-   3 0.97 252 1.64
 126  0.993  0.308  0.448- 236 1.66 209 1.68
 127  0.535  0.507  0.532- 269 1.64 227 1.65
 128  0.817  0.499  0.423-  21 0.98 207 1.69
 129  0.236  0.146  0.605-  33 0.98 244 1.62
 130  0.204  0.831  0.471- 220 1.50 238 1.63
 131  0.240  0.559  0.523- 223 1.65 212 1.66
 132  0.061  0.625  0.624-  44 0.97 267 1.63
 133  0.046  0.602  0.354-  22 0.97 205 1.65
 134  0.801  0.978  0.605- 225 1.66 252 1.68
 135  0.538  0.028  0.405-  25 0.99 214 1.66
 136  0.604  0.314  0.605-  13 0.97 239 1.64
 137  0.862  0.004  0.369-   8 0.97 241 1.66
 138  0.095  0.149  0.467- 242 1.62 216 1.65
 139  0.171  0.204  0.531- 242 1.61 244 1.63
 140  0.641  0.704  0.455- 237 1.65 251 1.66
 141  0.437  0.410  0.386-  35 0.98 253 1.66
 142  0.574  0.058  0.571- 255 1.62 228 1.65
 143  0.151  0.593  0.389- 248 1.68 205 1.68
 144  0.268  0.602  0.392- 259 1.65 248 1.67
 145  0.440  0.322  0.470- 258 1.65 253 1.69
 146  0.238  0.159  0.430- 262 1.65 266 1.67
 147  0.073  0.149  0.562- 242 1.64 210 1.64
 148  0.845  0.544  0.600- 230 1.66 260 1.66
 149  0.621  0.280  0.411- 257 1.65 245 1.66
 150  0.603  0.892  0.467- 264 1.29 218 1.67
 151  0.031  0.195  0.389- 209 1.66 216 1.66
 152  0.608  0.195  0.548- 228 1.62 239 1.64
 153  0.133  0.938  0.479- 261 1.65 220 1.66
 154  0.080  0.280  0.512- 236 1.64 242 1.65
 155  0.373  0.104  0.569- 268 1.63 215 1.69
 156  0.066  0.697  0.536- 243 1.63 267 1.63
 157  0.666  0.415  0.430- 219 1.65 257 1.65
 158  0.799  0.729  0.564- 249 1.61 234 1.63
 159  0.704  0.957  0.470- 217 1.65 218 1.66
 160  0.598  0.634  0.553- 227 1.63 211 1.63
 161  0.723  0.294  0.452- 232 1.63 257 1.64
 162  0.977  0.314  0.547- 236 1.64 240 1.67
 163  0.158  0.630  0.571- 223 1.63 267 1.65
 164  0.633  0.327  0.508- 239 1.63 257 1.65
 165  0.820  0.396  0.606-  18 0.97 260 1.65
 166  0.959  0.027  0.417- 241 1.64 208 1.65
 167  0.282  0.195  0.519- 266 1.63 244 1.65
 168  0.249  0.443  0.461- 212 1.66 256 1.71
 169  0.272  0.850  0.569- 235 1.64 247 1.65
 170  0.204  0.686  0.487- 223 1.63 238 1.66
 171  0.147  0.476  0.493- 212 1.63 263 1.65
 172  0.225  0.423  0.557- 212 1.61 221 1.63
 173  0.911  0.453  0.474-  16 0.98 207 1.65
 174  0.870  0.705  0.464-  23 0.99 213 1.65
 175  0.738  0.093  0.445-   9 0.98 217 1.66
 176  0.222  0.930  0.408-  26 1.00 220 1.64
 177  0.253  0.403  0.649-  45 0.97 221 1.64
 178  0.631  0.883  0.594-  14 0.99 222 1.62
 179  0.410  0.789  0.423-  36 0.97 224 1.68
 180  0.918  0.196  0.508-  10 0.97 229 1.65
 181  0.133  0.444  0.332-  40 0.98 231 1.65
 182  0.155  0.304  0.311-  28 0.97 231 1.69
 183  0.373  0.131  0.348-  29 0.98 233 1.66
 184  0.035  0.292  0.633-  15 0.97 240 1.66
 185  0.573  0.257  0.320-  11 0.97 245 1.66
 186  0.245  0.771  0.650-  46 0.97 247 1.64
 187  0.207  0.648  0.310-  37 0.97 248 1.65
 188  0.275  0.392  0.367-  38 0.98 256 1.66
 189  0.365  0.598  0.342-  39 0.97 259 1.67
 190  0.226  0.056  0.358-  30 0.97 262 1.69
 191  0.241  0.196  0.329-  27 0.99 262 1.66
 192  0.501  0.892  0.455-  42 0.99 264 1.60
 193  0.550  0.828  0.534-  31 0.97 264 1.67
 194  0.545  0.647  0.635- 211 1.65 246 1.67
 195  0.479  0.122  0.596- 255 1.65 215 1.65
 196  0.262  0.695  0.569- 247 1.65 223 1.65
 197  0.443  0.847  0.582- 254 1.66 206 1.68
 198  0.765  0.617  0.649- 265 1.65 230 1.66
 199  0.845  0.832  0.623- 234 1.66 225 1.68
 200  0.640  0.739  0.621- 211 1.67 222 1.71
 201  0.008  0.033  0.603- 250 1.69 210 1.69
 202  0.284  0.002  0.594- 268 1.69 235 1.70
 203  0.503  0.972  0.629- 254 1.69 255 1.70
 204  0.446  0.441  0.730- 270 1.73
 205  0.083  0.606  0.406- 133 1.65 120 1.65  86 1.67 143 1.68 263 3.13
 206  0.409  0.766  0.575-  84 1.62 123 1.63  98 1.66 197 1.68 247 3.06
 207  0.842  0.441  0.468-  69 1.64 104 1.65 173 1.65 128 1.69
 208  0.017  0.990  0.394-  57 1.65 166 1.65  72 1.65 117 1.65 261 3.11 216 3.13
 209  0.015  0.284  0.391-  74 1.64  73 1.65 151 1.66 126 1.68 236 3.11 216 3.11
 210  0.009  0.115  0.572-  60 1.63 147 1.64  70 1.69 201 1.69 250 2.39 242 3.04 240 3.07
 211  0.609  0.657  0.611- 160 1.63 194 1.65 200 1.67  97 1.67 265 2.88
 212  0.214  0.476  0.510- 172 1.61 171 1.63 131 1.66 168 1.66 223 3.10 256 3.14
 213  0.915  0.756  0.496-  96 1.65 174 1.65  80 1.66  85 1.66 226 2.99 234 3.03
 214  0.521  0.110  0.426- 107 1.64  58 1.65 135 1.66 115 1.67 245 3.08 228 3.12
 215  0.419  0.169  0.589-  78 1.64 195 1.65  95 1.68 155 1.69 268 3.14 255 3.14
 216  0.083  0.139  0.407-  57 1.64 138 1.65  83 1.65 151 1.66 209 3.11 208 3.13 262 3.14
 217  0.702  0.045  0.487-  90 1.64 159 1.65  56 1.65 175 1.66 228 3.09 218 3.10 252 3.15
 218  0.665  0.898  0.437-  89 1.53 159 1.66 119 1.66 150 1.67 264 2.83 251 3.06 217 3.10
 219  0.650  0.504  0.430-  99 1.65 157 1.65  87 1.67  93 1.68 227 3.07
 220  0.198  0.912  0.464- 130 1.50 176 1.64 153 1.66 109 1.67 238 3.01 235 3.06 261 3.07
 221  0.215  0.367  0.604-  77 1.63 172 1.63 101 1.64 177 1.64
 222  0.674  0.813  0.595- 178 1.62 110 1.64  92 1.68 200 1.71 249 2.90
 223  0.216  0.642  0.539- 170 1.63 163 1.63 196 1.65 131 1.65 238 3.09 212 3.10 267 3.12
 224  0.369  0.735  0.459-  67 1.65  98 1.66  51 1.66 179 1.68
 225  0.797  0.888  0.595- 134 1.66  92 1.66 103 1.67 199 1.68 234 2.86 226 2.99
 226  0.880  0.912  0.512-  66 1.60  85 1.62 103 1.65 111 1.65 213 2.99 225 2.99 250 3.05 241 3.13

 227  0.577  0.575  0.512-  93 1.58 160 1.63  94 1.63 127 1.65 237 3.00 219 3.07
 228  0.590  0.115  0.525-  56 1.60 115 1.61 152 1.62 142 1.65 255 2.85 217 3.09 239 3.11 214 3.12

 229  0.858  0.152  0.495- 180 1.65  81 1.65 114 1.66  59 1.69 241 3.07 232 3.15
 230  0.835  0.604  0.646-  53 1.64  65 1.64 148 1.66 198 1.66 265 2.93 234 3.00 260 3.01
 231  0.134  0.360  0.357- 181 1.65  74 1.65  64 1.67 182 1.69 256 3.11
 232  0.791  0.280  0.442- 161 1.63 104 1.65 108 1.67  59 1.67 229 3.15
 233  0.399  0.177  0.396-  58 1.65 116 1.65 183 1.66  68 1.67 253 3.07
 234  0.856  0.750  0.597- 158 1.63  80 1.64  65 1.64 199 1.66 225 2.86 230 3.00 213 3.03
 235  0.283  0.935  0.550- 109 1.58 169 1.64  54 1.68 202 1.70 268 2.38 220 3.06
 236  0.023  0.330  0.502- 154 1.64 162 1.64  76 1.65 126 1.66 240 3.10 209 3.11 242 3.14
 237  0.575  0.695  0.436-  62 1.51  94 1.52 140 1.65  82 1.68 227 3.00 264 3.06 251 3.10
 238  0.230  0.753  0.452- 130 1.63 170 1.66  75 1.66  67 1.67 248 2.97 220 3.01 223 3.09
 239  0.594  0.283  0.548- 164 1.63 105 1.63 152 1.64 136 1.64 228 3.11 257 3.14
 240  0.975  0.272  0.603-  91 1.63  60 1.65 184 1.66 162 1.67 210 3.07 236 3.10
 241  0.889  0.025  0.424-  81 1.64 166 1.64  66 1.65 137 1.66 229 3.07 226 3.13
 242  0.105  0.195  0.518- 139 1.61 138 1.62 147 1.64 154 1.65 210 3.04 236 3.14
 243  0.048  0.733  0.483- 156 1.63  96 1.65  88 1.65 120 1.66 261 3.05 267 3.15
 244  0.232  0.206  0.561- 129 1.62  77 1.63 139 1.63 167 1.65 266 3.03
 245  0.561  0.258  0.381- 112 1.45 107 1.59 149 1.66 185 1.66 253 2.87 214 3.08
 246  0.477  0.627  0.621- 123 1.63 118 1.66 194 1.67  79 1.67 269 2.97 270 3.10
 247  0.281  0.771  0.598- 186 1.64  84 1.64 196 1.65 169 1.65 206 3.06
 248  0.209  0.643  0.372- 187 1.65 144 1.67  75 1.67 143 1.68 238 2.97
 249  0.740  0.710  0.536- 158 1.61 124 1.63 100 1.63 110 1.63 222 2.90 251 2.91 265 3.07
 250  0.986  0.990  0.550-  55 1.63 111 1.65  70 1.68 201 1.69 210 2.39 226 3.05
 251  0.703  0.737  0.434-  89 1.65 122 1.65 140 1.66 124 1.69 249 2.91 218 3.06 237 3.10
 252  0.788  0.059  0.577-  90 1.64 125 1.64 114 1.66 134 1.68 217 3.15
 253  0.456  0.328  0.409- 141 1.66 112 1.66  68 1.67 145 1.69 245 2.87 233 3.07
 254  0.450  0.936  0.595-  63 1.65 197 1.66 113 1.69 203 1.69 255 2.36 268 2.74
 255  0.509  0.041  0.586- 142 1.62 195 1.65 113 1.70 203 1.70 254 2.36 228 2.85 215 3.14
 256  0.244  0.370  0.421-  61 1.65  64 1.66 188 1.66 168 1.71 231 3.11 212 3.14
 257  0.659  0.330  0.450- 161 1.64 149 1.65 157 1.65 164 1.65 239 3.14
 258  0.461  0.317  0.529- 105 1.61 145 1.65  95 1.68 121 1.70
 259  0.337  0.590  0.399- 144 1.65 189 1.67  52 1.67  51 1.68
 260  0.803  0.476  0.580-  69 1.63 165 1.65 148 1.66 106 1.66 265 2.90 230 3.01
 261  0.069  0.899  0.481-  88 1.50  72 1.64 153 1.65  55 1.66 243 3.05 220 3.07 208 3.11
 262  0.212  0.144  0.374-  83 1.65 146 1.65 191 1.66 190 1.69 266 3.12 216 3.14
 263  0.078  0.494  0.495- 102 1.63  76 1.64 171 1.65  86 1.66 267 3.09 205 3.13
 264  0.558  0.852  0.475- 150 1.29 192 1.60  62 1.66 193 1.67 218 2.83 237 3.06
 265  0.718  0.584  0.610- 100 1.64 198 1.65  97 1.65 106 1.65 211 2.88 260 2.90 230 2.93 249 3.07

 266  0.287  0.210  0.459- 167 1.63 116 1.63  61 1.66 146 1.67 244 3.03 262 3.12
 267  0.088  0.625  0.568- 156 1.63 132 1.63 102 1.64 163 1.65 263 3.09 223 3.12 243 3.15
 268  0.353  0.019  0.579- 155 1.63  63 1.66 202 1.69  54 1.69 235 2.38 254 2.74 215 3.14
 269  0.488  0.480  0.573- 127 1.64  71 1.66 121 1.68  79 1.68 246 2.97
 270  0.491  0.498  0.696- 204 1.73 118 1.94   1 1.96  71 1.99   2 2.21 246 3.10

  LATTYP: Found a simple orthorhombic cell.
 ALAT       =    18.1212369514
 B/A-ratio  =     1.2919258579
 C/A-ratio  =     1.4835282260
  
  Lattice vectors:
  
 A1 = (   0.0000000000, -18.1212369514,   0.0000000000)
 A2 = ( -23.4112945954,   0.0000000000,   0.0000000000)
 A3 = (   0.0000000000,   0.0000000000, -26.8833665073)


Analysis of symmetry for initial positions (statically):
=====================================================================
 Subroutine PRICEL returns:
 Original cell was already a primitive cell.
 

 Routine SETGRP: Setting up the symmetry group for a 
 simple orthorhombic supercell.


 Subroutine GETGRP returns: Found  1 space group operations
 (whereof  1 operations were pure point group operations)
 out of a pool of  8 trial point group operations.


The static configuration has the point symmetry C_1 .


Analysis of symmetry for dynamics (positions and initial velocities):
=====================================================================
 Subroutine PRICEL returns:
 Original cell was already a primitive cell.
 

 Routine SETGRP: Setting up the symmetry group for a 
 simple orthorhombic supercell.


 Subroutine GETGRP returns: Found  1 space group operations
 (whereof  1 operations were pure point group operations)
 out of a pool of  8 trial point group operations.


The dynamic configuration has the point symmetry C_1 .


Analysis of constrained symmetry for selective dynamics:
=====================================================================
 Subroutine PRICEL returns:
 Original cell was already a primitive cell.
 

 Routine SETGRP: Setting up the symmetry group for a 
 simple orthorhombic supercell.


 Subroutine GETGRP returns: Found  1 space group operations
 (whereof  1 operations were pure point group operations)
 out of a pool of  8 trial point group operations.


The constrained configuration has the point symmetry C_1 .


 Subroutine INISYM returns: Found  1 space group operations
 (whereof  1 operations are pure point group operations),
 and found     1 'primitive' translations



 KPOINTS: KPOINTS created by Atomic Simulation Env

Automatic generation of k-mesh.
Space group operators:
 irot       det(A)        alpha          n_x          n_y          n_z        tau_x        tau_y        tau_z
    1     1.000000     0.000000     1.000000     0.000000     0.000000     0.000000     0.000000     0.000000
 
 Subroutine IBZKPT returns following result:
 ===========================================
 
 Found      5 irreducible k-points:
 
 Following reciprocal coordinates:
            Coordinates               Weight
  0.000000  0.000000  0.000000      1.000000
  0.333333  0.000000  0.000000      2.000000
  0.000000  0.333333  0.000000      2.000000
  0.333333  0.333333  0.000000      2.000000
 -0.333333  0.333333  0.000000      2.000000
 
 Following cartesian coordinates:
            Coordinates               Weight
  0.000000  0.000000  0.000000      1.000000
  0.014238  0.000000  0.000000      2.000000
  0.000000  0.018395  0.000000      2.000000
  0.014238  0.018395  0.000000      2.000000
 -0.014238  0.018395  0.000000      2.000000
 


--------------------------------------------------------------------------------------------------------




 Dimension of arrays:
   k-points           NKPTS =      5   k-points in BZ     NKDIM =      5   number of bands    NBANDS=    759
   number of dos      NEDOS =    301   number of ions     NIONS =    270
   non local maximal  LDIM  =      6   non local SUM 2l+1 LMDIM =     18
   total plane-waves  NPLWV = ******
   max r-space proj   IRMAX =   2748   max aug-charges    IRDMAX=   9808
   dimension x,y,z NGX =   128 NGY =  100 NGZ =  150
   dimension x,y,z NGXF=   256 NGYF=  200 NGZF=  300
   support grid    NGXF=   256 NGYF=  200 NGZF=  300
   ions per type =               2  48 154  65   1
   NGX,Y,Z   is equivalent  to a cutoff of   9.09,  9.17,  9.28 a.u.
   NGXF,Y,Z  is equivalent  to a cutoff of  18.18, 18.35, 18.55 a.u.

 SYSTEM =  unknown system                          
 POSCAR =   C  H  O Si  W                          

 Startparameter for this run:
   NWRITE =      2    write-flag & timer
   PREC   = normal    normal or accurate (medium, high low for compatibility)
   ISTART =      0    job   : 0-new  1-cont  2-samecut
   ICHARG =      2    charge: 1-file 2-atom 10-const
   ISPIN  =      1    spin polarized calculation?
   LNONCOLLINEAR =      F non collinear calculations
   LSORBIT =      F    spin-orbit coupling
   INIWAV =      1    electr: 0-lowe 1-rand  2-diag
   LASPH  =      T    aspherical Exc in radial PAW
   METAGGA=      F    non-selfconsistent MetaGGA calc.

 Electronic Relaxation 1
   ENCUT  =  500.0 eV  36.75 Ry    6.06 a.u.  42.68 33.04 49.01*2*pi/ulx,y,z
   ENINI  =  500.0     initial cutoff
   ENAUG  =  644.9 eV  augmentation charge cutoff
   NELM   =     60;   NELMIN=  2; NELMDL= -5     # of ELM steps 
   EDIFF  = 0.1E-03   stopping-criterion for ELM
   LREAL  =      T    real-space projection
   NLSPLINE    = F    spline interpolate recip. space projectors
   LCOMPAT=      F    compatible to vasp.4.4
   GGA_COMPAT  = T    GGA compatible to vasp.4.4-vasp.4.6
   LMAXPAW     = -100 max onsite density
   LMAXMIX     =    2 max onsite mixed and CHGCAR
   VOSKOWN=      0    Vosko Wilk Nusair interpolation
   ROPT   =   -0.00050  -0.00050  -0.00050  -0.00050
   ROPT   =   -0.00050
 Ionic relaxation
   EDIFFG = -.5E-01   stopping-criterion for IOM
   NSW    =    500    number of steps for IOM
   NBLOCK =      1;   KBLOCK =    500    inner block; outer block 
   IBRION =      3    ionic relax: 0-MD 1-quasi-New 2-CG
   NFREE  =      0    steps in history (QN), initial steepest desc. (CG)
   ISIF   =      0    stress and relaxation
   IWAVPR =     11    prediction:  0-non 1-charg 2-wave 3-comb
   ISYM   =      2    0-nonsym 1-usesym 2-fastsym
   LCORR  =      T    Harris-Foulkes like correction to forces

   POTIM  = 0.0000    time-step for ionic-motion
   TEIN   =    0.0    initial temperature
   TEBEG  =    0.0;   TEEND  =   0.0 temperature during run
   SMASS  =  -3.00    Nose mass-parameter (am)
   estimated Nose-frequenzy (Omega)   =  0.10E-29 period in steps =  0.00 mass=  -0.125E-25a.u.
   SCALEE = 1.0000    scale energy and forces
   NPACO  =    256;   APACO  = 16.0  distance and # of slots for P.C.
   PSTRESS=    0.0 pullay stress

  Mass of Ions in am
   POMASS =  12.01  1.00 16.00 28.09183.85
  Ionic Valenz
   ZVAL   =   4.00  1.00  6.00  4.00  6.00
  Atomic Wigner-Seitz radii
   RWIGS  =  -1.00 -1.00 -1.00 -1.00 -1.00
  virtual crystal weights 
   VCA    =   1.00  1.00  1.00  1.00  1.00
   NELECT =    1246.0000    total number of electrons
   NUPDOWN=      -1.0000    fix difference up-down

 DOS related values:
   EMIN   =  10.00;   EMAX   =-10.00  energy-range for DOS
   EFERMI =   0.00
   ISMEAR =     0;   SIGMA  =   0.20  broadening in eV -4-tet -1-fermi 0-gaus

 Electronic relaxation 2 (details)
   IALGO  =     68    algorithm
   LDIAG  =      T    sub-space diagonalisation (order eigenvalues)
   LSUBROT=      F    optimize rotation matrix (better conditioning)
   TURBO    =      0    0=normal 1=particle mesh
   IRESTART =      0    0=no restart 2=restart with 2 vectors
   NREBOOT  =      0    no. of reboots
   NMIN     =      0    reboot dimension
   EREF     =   0.00    reference energy to select bands
   IMIX   =      4    mixing-type and parameters
     AMIX     =   0.40;   BMIX     =  1.00
     AMIX_MAG =   1.60;   BMIX_MAG =  1.00
     AMIN     =   0.10
     WC   =   100.;   INIMIX=   1;  MIXPRE=   1;  MAXMIX= -45

 Intra band minimization:
   WEIMIN = 0.0010     energy-eigenvalue tresh-hold
   EBREAK =  0.33E-07  absolut break condition
   DEPER  =   0.30     relativ break condition  

   TIME   =   0.40     timestep for ELM

  volume/ion in A,a.u.               =      42.24       285.06
  Fermi-wavevector in a.u.,A,eV,Ry     =   0.782616  1.478929  8.333395  0.612487
  Thomas-Fermi vector in A             =   1.886376

 Write flags
   LWAVE        =      T    write WAVECAR
   LDOWNSAMPLE  =      F    k-point downsampling of WAVECAR
   LCHARG       =      T    write CHGCAR
   LVTOT        =      F    write LOCPOT, total local potential
   LVHAR        =      F    write LOCPOT, Hartree potential only
   LELF         =      F    write electronic localiz. function (ELF)
   LORBIT       =      0    0 simple, 1 ext, 2 COOP (PROOUT), +10 PAW based schemes


 Dipole corrections
   LMONO  =      F    monopole corrections only (constant potential shift)
   LDIPOL =      T    correct potential (dipole corrections)
   IDIPOL =      3    1-x, 2-y, 3-z, 4-all directions 
   EPSILON=  1.0000000 bulk dielectric constant

 Exchange correlation treatment:
   GGA     =    RP    GGA type
   LEXCH   =     9    internal setting for exchange type
   VOSKOWN=      0    Vosko Wilk Nusair interpolation
   LHFCALC =     F    Hartree Fock is set to
   LHFONE  =     F    Hartree Fock one center treatment
   AEXX    =    0.0000 exact exchange contribution

 Linear response parameters
   LEPSILON=     F    determine dielectric tensor
   LRPA    =     F    only Hartree local field effects (RPA)
   LNABLA  =     F    use nabla operator in PAW spheres
   LVEL    =     F    velocity operator in full k-point grid
   LINTERFAST=   F  fast interpolation
   KINTER  =     0    interpolate to denser k-point grid
   CSHIFT  =0.1000    complex shift for real part using Kramers Kronig
   OMEGAMAX=  -1.0    maximum frequency
   DEG_THRESHOLD= 0.2000000E-02 threshold for treating states as degnerate
   RTIME   =   -0.100 relaxation time in fs
  (WPLASMAI=    0.000 imaginary part of plasma frequency in eV, 0.658/RTIME)
   DFIELD  = 0.0000000 0.0000000 0.0000000 field for delta impulse in time

 Orbital magnetization related:
   ORBITALMAG=     F  switch on orbital magnetization
   LCHIMAG   =     F  perturbation theory with respect to B field
   DQ        =  0.001000  dq finite difference perturbation B field
   LLRAUG    =     F  two centre corrections for induced B field



--------------------------------------------------------------------------------------------------------


 quickmin algorithm: (dynamic with friction)
   using selective dynamics as specified on POSCAR
 charge density and potential will be updated during run
 non-spin polarized calculation
 RMM-DIIS sequential band-by-band and
  variant of blocked Davidson during initial phase
 perform sub-space diagonalisation
    before iterative eigenvector-optimisation
 modified Broyden-mixing scheme, WC =      100.0
 initial mixing is a Kerker type mixing with AMIX =  0.4000 and BMIX =      1.0000
 Hartree-type preconditioning will be used
 using additional bands          136
 real space projection scheme for non local part
 use partial core corrections
 calculate Harris-corrections to forces   (improved forces if not selfconsistent)
 use gradient corrections 
 use of overlap-Matrix (Vanderbilt PP)
 Gauss-broadening in eV      SIGMA  =   0.20


--------------------------------------------------------------------------------------------------------


  energy-cutoff  :      500.00
  volume of cell :    11405.04
      direct lattice vectors                 reciprocal lattice vectors
    23.411294595  0.000000000  0.000000000     0.042714426  0.000000000  0.000000000
     0.000000000 18.121236951  0.000000000     0.000000000  0.055183871  0.000000000
     0.000000000  0.000000000 26.883366507     0.000000000  0.000000000  0.037197722

  length of vectors
    23.411294595 18.121236951 26.883366507     0.042714426  0.055183871  0.037197722



 k-points in units of 2pi/SCALE and weight: KPOINTS created by Atomic Simulation Env
   0.00000000  0.00000000  0.00000000       0.111
   0.01423814  0.00000000  0.00000000       0.222
   0.00000000  0.01839462  0.00000000       0.222
   0.01423814  0.01839462  0.00000000       0.222
  -0.01423814  0.01839462  0.00000000       0.222

 k-points in reciprocal lattice and weights: KPOINTS created by Atomic Simulation Env
   0.00000000  0.00000000  0.00000000       0.111
   0.33333333  0.00000000  0.00000000       0.222
   0.00000000  0.33333333  0.00000000       0.222
   0.33333333  0.33333333  0.00000000       0.222
  -0.33333333  0.33333333  0.00000000       0.222

 position of ions in fractional coordinates (direct lattice) 
   0.54520613  0.53693468  0.74544512
   0.57315948  0.45627594  0.72570262
   0.76150367  0.10285140  0.65130969
   0.92642768  0.27866896  0.35633493
   0.79333970  0.20727890  0.37345652
   0.97453911  0.94360860  0.32530279
   0.62573266  0.96347285  0.37523120
   0.82053840  0.99500666  0.36899263
   0.74999307  0.14117876  0.45803819
   0.91548834  0.24944894  0.50952705
   0.58349286  0.30426355  0.30592717
   0.89183246  0.33485681  0.61612051
   0.58620234  0.36026887  0.61312741
   0.59348450  0.87042852  0.57810225
   0.03360303  0.33787661  0.65230355
   0.93527051  0.41951423  0.45410146
   0.74613838  0.53031199  0.42248819
   0.79920811  0.38289630  0.63541311
   0.59110202  0.56868283  0.37803474
   0.71843379  0.64593279  0.38346059
   0.84115291  0.54242660  0.41959617
   0.00476455  0.60379815  0.35777830
   0.82835870  0.71235667  0.46794226
   0.87681721  0.59869411  0.72160294
   0.51999031  0.98556476  0.42170307
   0.22309457  0.98015484  0.39320502
   0.21637369  0.23785146  0.31923033
   0.15750105  0.32980623  0.27898292
   0.34154688  0.15558571  0.33077276
   0.22271586  0.04575893  0.32273843
   0.51116043  0.82611510  0.54675079
   0.37517043  0.23900708  0.64763989
   0.24408369  0.09364663  0.59860004
   0.31538097  0.48713646  0.44243467
   0.40895618  0.43873486  0.40569060
   0.39849950  0.79311361  0.38878680
   0.24420236  0.65543008  0.29432688
   0.31174138  0.41847571  0.36925764
   0.40547429  0.58427965  0.33881989
   0.13935762  0.48797365  0.35192946
   0.59326935  0.69798713  0.35239799
   0.46900683  0.86142747  0.44382838
   0.12198894  0.32446404  0.61231774
   0.07199081  0.66537989  0.64571162
   0.24288232  0.38827538  0.68241668
   0.24680260  0.81586140  0.66980015
   0.59237152  0.48874112  0.75986906
   0.57195624  0.58380904  0.73358261
   0.56325955  0.40516663  0.74573679
   0.60483477  0.45366387  0.69578245
   0.36894173  0.64835510  0.43900002
   0.34681565  0.50403387  0.42038813
   0.86071117  0.56602845  0.69675540
   0.34877164  0.95796770  0.53085861
   0.03315988  0.93213212  0.52857457
   0.63635548  0.07886855  0.48937667
   0.06864615  0.05226542  0.39511073
   0.45189954  0.12956232  0.42059728
   0.80588415  0.21365018  0.48316661
   0.97358891  0.18162559  0.59859601
   0.27476529  0.29917287  0.44851223
   0.55635417  0.77509129  0.44175101
   0.39179445  0.97234758  0.61992709
   0.17751724  0.34996845  0.40527312
   0.86657887  0.68419925  0.63753089
   0.86569601  0.96717693  0.46703846
   0.30104714  0.76093683  0.45792526
   0.42161095  0.26125222  0.37959630
   0.81126184  0.46536513  0.52020994
   0.98340461  0.07237853  0.52113232
   0.51469894  0.46200039  0.62940873
   0.03453641  0.91994776  0.42940526
   0.96303654  0.30319531  0.35125762
   0.06962669  0.33610577  0.37637178
   0.20829566  0.72864429  0.39536010
   0.03890126  0.41910192  0.49910875
   0.23936840  0.28631466  0.58781792
   0.39843807  0.19488438  0.64505625
   0.45560730  0.56188652  0.58130241
   0.90983511  0.74897045  0.55749557
   0.86912727  0.10804334  0.44227833
   0.57257679  0.66733185  0.37613173
   0.14242656  0.15912550  0.37597224
   0.35031916  0.76584873  0.60650593
   0.91099605  0.84504757  0.48317962
   0.06133801  0.53687171  0.44225348
   0.70833903  0.55516655  0.41995768
   0.07548726  0.81680680  0.48299416
   0.70046477  0.82755571  0.43263529
   0.73022401  0.04916721  0.54297088
   0.91901554  0.30168381  0.63209799
   0.73507316  0.85234208  0.61294242
   0.62512195  0.52739400  0.48637871
   0.55657330  0.62970304  0.46724942
   0.42588652  0.24632373  0.55529749
   0.97829009  0.72824363  0.47679564
   0.65403126  0.59370329  0.63340233
   0.39697429  0.74646204  0.51528230
   0.60269007  0.51766545  0.38567099
   0.71975592  0.63058312  0.55699352
   0.14722546  0.36533423  0.62045576
   0.06605538  0.54828024  0.54206588
   0.81872633  0.88404969  0.53643256
   0.82821553  0.35538514  0.45190334
   0.52768680  0.29584720  0.53058321
   0.73697792  0.49877362  0.59571883
   0.55743394  0.17243111  0.39490854
   0.80596408  0.25641257  0.38329286
   0.23744622  0.95325075  0.50791956
   0.69270628  0.77551702  0.54161988
   0.92341136  0.94968001  0.55305773
   0.52573722  0.31778112  0.39855594
   0.46836172  0.98993138  0.54641631
   0.83776319  0.09476991  0.53976707
   0.53790325  0.11641749  0.48623709
   0.35019344  0.18660873  0.43963639
   0.01176032  0.96241390  0.33524376
   0.45544857  0.58890582  0.67462499
   0.65496522  0.92539750  0.37922825
   0.07629334  0.68602626  0.43588102
   0.45480137  0.40328013  0.55383466
   0.71921944  0.70042085  0.37958300
   0.45033212  0.70389821  0.60027453
   0.75255106  0.70932458  0.47629548
   0.77928189  0.12049544  0.62100412
   0.99327462  0.30801347  0.44840298
   0.53500987  0.50739391  0.53212629
   0.81677759  0.49906173  0.42344221
   0.23641457  0.14567974  0.60541525
   0.20353331  0.83070132  0.47053363
   0.23984785  0.55896584  0.52281266
   0.06101443  0.62532297  0.62387082
   0.04607407  0.60234669  0.35417863
   0.80060627  0.97827662  0.60541441
   0.53799091  0.02769749  0.40450275
   0.60411807  0.31355391  0.60459824
   0.86154611  0.00408085  0.36920633
   0.09491131  0.14902284  0.46708233
   0.17142253  0.20401496  0.53099120
   0.64098865  0.70443872  0.45481558
   0.43678778  0.40976848  0.38641325
   0.57420060  0.05819516  0.57115904
   0.15143775  0.59340802  0.38895836
   0.26773979  0.60233753  0.39230630
   0.44025846  0.32219818  0.47032443
   0.23800967  0.15851113  0.42990119
   0.07290384  0.14943398  0.56246182
   0.84491380  0.54441839  0.59979590
   0.62117943  0.27993988  0.41090545
   0.60266699  0.89152667  0.46722346
   0.03138539  0.19528983  0.38899188
   0.60829544  0.19495849  0.54779199
   0.13279973  0.93835464  0.47948708
   0.08002908  0.28013978  0.51210679
   0.37262276  0.10423183  0.56889302
   0.06618370  0.69665693  0.53570388
   0.66648838  0.41538488  0.43001156
   0.79940405  0.72911106  0.56417953
   0.70383856  0.95720843  0.47018456
   0.59778344  0.63420481  0.55329020
   0.72284030  0.29368465  0.45166811
   0.97738187  0.31439560  0.54719722
   0.15800459  0.62988200  0.57054808
   0.63333384  0.32678308  0.50780070
   0.82030064  0.39639867  0.60571108
   0.95857820  0.02724304  0.41695300
   0.28208041  0.19534662  0.51865367
   0.24925755  0.44303289  0.46105570
   0.27190365  0.84979188  0.56867008
   0.20366815  0.68557317  0.48688872
   0.14712345  0.47606988  0.49254493
   0.22466822  0.42295954  0.55669922
   0.91141698  0.45274460  0.47371881
   0.86978818  0.70456011  0.46415352
   0.73812021  0.09283462  0.44522965
   0.22218344  0.92978119  0.40794682
   0.25295871  0.40286261  0.64888461
   0.63051989  0.88265527  0.59355196
   0.41022327  0.78906239  0.42343739
   0.91777135  0.19603829  0.50824515
   0.13254706  0.44353611  0.33227266
   0.15514768  0.30352326  0.31056042
   0.37300515  0.13090704  0.34795342
   0.03467652  0.29230410  0.63333170
   0.57268926  0.25686819  0.32009968
   0.24532125  0.77100312  0.65016003
   0.20737430  0.64840505  0.31036906
   0.27537441  0.39219130  0.36737583
   0.36535081  0.59758663  0.34222079
   0.22638085  0.05618082  0.35811888
   0.24120333  0.19607823  0.32934297
   0.50127293  0.89230162  0.45484168
   0.55012752  0.82771468  0.53433685
   0.54488034  0.64661100  0.63473089
   0.47857209  0.12175099  0.59631012
   0.26200646  0.69454321  0.56879102
   0.44288878  0.84684176  0.58175637
   0.76546585  0.61686028  0.64949535
   0.84485871  0.83160116  0.62281762
   0.63995507  0.73915194  0.62131991
   0.00779418  0.03311950  0.60294042
   0.28436386  0.00185298  0.59379401
   0.50332222  0.97160927  0.62891492
   0.44585849  0.44103545  0.72982242
   0.08322528  0.60642030  0.40641308
   0.40903808  0.76552490  0.57461623
   0.84176382  0.44145312  0.46783897
   0.01708949  0.99048204  0.39361135
   0.01470021  0.28419027  0.39108141
   0.00924645  0.11467206  0.57237552
   0.60939565  0.65740690  0.61104942
   0.21399454  0.47607584  0.50967184
   0.91506213  0.75556094  0.49625454
   0.52057854  0.11045563  0.42598659
   0.41873633  0.16910105  0.58934988
   0.08345253  0.13917208  0.40698087
   0.70189793  0.04484625  0.48732303
   0.66505935  0.89803746  0.43747644
   0.65009874  0.50402706  0.43015089
   0.19846065  0.91248223  0.46399069
   0.21460548  0.36721228  0.60366013
   0.67363960  0.81302311  0.59475042
   0.21642212  0.64170643  0.53859523
   0.36878912  0.73512773  0.45920930
   0.79734227  0.88808443  0.59546047
   0.87959860  0.91212181  0.51192816
   0.57651228  0.57458759  0.51203428
   0.58984158  0.11521812  0.52528929
   0.85812234  0.15211323  0.49517595
   0.83547528  0.60377306  0.64597773
   0.13373852  0.36031890  0.35687228
   0.79065529  0.27993925  0.44187265
   0.39917610  0.17749484  0.39600320
   0.85606973  0.74993404  0.59651742
   0.28280047  0.93455782  0.54971413
   0.02307473  0.33044751  0.50224551
   0.57455938  0.69549008  0.43556436
   0.23024095  0.75260050  0.45196954
   0.59364622  0.28328413  0.54780631
   0.97535499  0.27235550  0.60255328
   0.88890636  0.02540900  0.42420019
   0.10468343  0.19523827  0.51785939
   0.04814566  0.73303709  0.48263019
   0.23198870  0.20617831  0.56104738
   0.56140781  0.25778527  0.38122611
   0.47688552  0.62689652  0.62147809
   0.28107273  0.77062589  0.59783341
   0.20850083  0.64339984  0.37179454
   0.74046407  0.71030413  0.53584460
   0.98624048  0.99028020  0.55033277
   0.70310456  0.73681815  0.43426040
   0.78802587  0.05923442  0.57671823
   0.45631390  0.32845159  0.40928789
   0.44957239  0.93575597  0.59477832
   0.50859985  0.04061122  0.58623778
   0.24424715  0.37040632  0.42094710
   0.65852534  0.33000211  0.45034791
   0.46074718  0.31721000  0.52876727
   0.33729937  0.58994254  0.39908301
   0.80348019  0.47638420  0.57985897
   0.06920979  0.89885916  0.48050551
   0.21190758  0.14445432  0.37359659
   0.07823286  0.49398499  0.49468762
   0.55757019  0.85234010  0.47473025
   0.71842742  0.58439620  0.60959322
   0.28664212  0.21010174  0.45911077
   0.08782589  0.62533488  0.56771551
   0.35335544  0.01874737  0.57861667
   0.48800617  0.47991063  0.57339743
   0.49116065  0.49807237  0.69640141

 position of ions in cartesian coordinates  (Angst):
  12.76398140  9.72992059 20.04007432
  13.41840541  8.26828441 19.50932952
  17.82778664  1.86379468 17.50939699
  21.68887124  5.04982630  9.57948250
  18.57310935  3.75615001 10.03976840
  22.81522226 17.09935504  8.74523415
  14.64921175 17.45931981 10.08747787
  19.20986618 18.03075152  9.91976410
  17.55830880  2.55833368 12.31360861
  21.43276730  4.52032341 13.69780247
  13.66032332  5.51363181  8.22435231
  20.87895237  6.06801952 16.56339338
  13.72375557  6.52851763 16.48292897
  13.89424045 15.77324154 15.54133472
   0.78669043  6.12274219 17.53611534
  21.89589338  7.60211669 12.20777585
  17.46806539  9.60990927 11.35790489
  18.71049645  6.93855453 17.08204349
  13.83846346 10.30523625 10.16284657
  16.81946503 11.70510106 10.30871170
  19.69247867  9.82944087 11.28015755
   0.11154425 10.94156933  9.61828518
  19.39294954 12.90878407 12.57986315
  20.52742600 10.84907781 19.39911640
  12.17364643 17.85965257 11.33679820
   5.22293275 17.76161801 10.57067472
   5.06558822  4.31016263  8.58198589
   3.68730349  5.97649684  7.50000000
   7.99605454  2.81940543  8.89228530
   5.21406665  0.82920834  8.67629559
  11.96692747 14.97022745 14.69850177
   8.78322539  4.33110396 17.41074042
   5.71431507  1.69699270 16.09238432
   7.38347683  8.82751530 11.89413327
   9.57419369  7.95041833 10.90632902
   9.32938926 14.37219961 10.45189795
   5.71709332 11.87720376  7.91249741
   7.29826932  7.58329756  9.92688859
   9.49267817 10.58787004  9.10861924
   3.26254231  8.84268607  9.46104865
  13.88920341 12.64839014  9.47364424
  10.98005707 15.61013128 11.93160111
   2.85591906  5.87968969 16.46116221
   1.68539817 12.05750658 17.35890210
   5.68618960  7.03603024 18.34565760
   5.77796848 14.78441784 18.00648298
  13.86818419  8.85659357 20.42783850
  13.39023611 10.57934191 19.72117004
  13.18663531  7.34212055 20.04791556
  14.15996490  8.22095043 18.70497461
   8.63740362 11.74899635 11.80179838
   8.11940335  9.13371715 11.30144811
  20.15036286 10.25713566 18.73113077
   8.16519557 17.35955966 14.27126650
   0.77631579 16.89138710 14.20986394
  14.89790566  1.42919560 13.15609244
   1.60709516  0.94711408 10.62190669
  10.57955331  2.34782959 11.30707087
  18.86679123  3.87160553 12.98914499
  22.79297678  3.29128036 16.09227584
   6.43261122  5.42138248 12.05751853
  13.02497128 14.04561294 11.87575437
   9.17241521 17.62014085 16.66572722
   4.15590840  6.34186119 10.89510594
  20.28773327 12.39853679 17.13897670
  20.26706432 17.52644236 12.55556607
   7.04790320 13.78911669 12.31057251
   9.87045805  4.73421333 10.20482654
  18.99268999  8.43299175 13.98499444
  23.02277512  1.31158849 14.00979106
  12.04976843  8.37201852 16.92062549
   0.80854198 16.67059137 11.54385891
  22.54593219  5.49427402  9.44298747
   1.63005096  6.09065222 10.11814055
   4.87647100 13.20393591 10.62861051
   0.91072893  7.59464512 13.41772355
   5.60392420  5.18837579 15.80252446
   9.32795110  3.53154605 17.34128359
  10.66635662 10.18207871 15.62736574
  21.30041782 13.57227095 14.98735772
  20.34739459  1.95787901 11.88993046
  13.40476402 12.09287863 10.11168720
   3.33439013  2.88355087 10.10739962
   8.20142516 13.87812628 16.30492133
  21.32759690 15.31330727 12.98949491
   1.43600223  9.72877939 11.88926245
  16.58313365 10.06030463 11.28987623
   1.76725442 14.80154965 12.98450890
  16.39878711 14.99633320 11.63069310
  17.09548941  0.89097072 14.59688519
  21.51534356  5.46688384 16.99292189
  17.20901435 15.44549281 16.47795562
  14.63491423  9.55703168 13.07549710
  13.03010146 11.41099800 12.56123752
   9.97055473  4.46369076 14.92826601
  22.90303759 13.19667544 12.81787194
  15.31171840 10.75863808 17.02798704
   9.29368196 13.52681549 13.85252282
  14.10975474  9.38073831 10.36813464
  16.85041799 11.42694618 14.97386100
   3.44673857  6.62030808 16.67993962
   1.54644191  9.93551607 14.57255566
  19.16744325 16.02007384 14.42111313
  19.38959778  6.44001838 12.14868300
  12.35383124  5.36111722 14.26386298
  17.25360725  9.03839488 16.01492752
  13.05025009  3.12466491 10.61647095
  18.86866258  4.64651294 10.30420244
   5.55892333 17.27408272 13.65458756
  16.21715073 14.05332763 14.56056567
  21.61825544 17.20937648 14.86805357
  12.30818899  5.75858696 10.71452528
  10.96495429 17.93878104 14.68950993
  19.61312075  1.71734805 14.51075608
  12.59301152  2.10962891 13.07168996
   8.19848185  3.38158105 11.81890631
   0.27532438 17.44013032  9.01248080
  10.66264055 10.67170186 18.13619086
  15.33358375 16.76934745 10.19493214
   1.78612593 12.43164436 11.71794928
  10.64748892  7.30793486 14.88894018
  16.83785811 12.69249221 10.20446890
  10.54285797 12.75550634 16.13740026
  17.61819454 12.85383870 12.80442605
  18.24399780  2.18352640 16.69468134
  23.25384464  5.58158513 12.05458163
  12.52527366  9.19460519 14.30534608
  19.12182067  9.04361594 11.38355200
   5.53477120  2.63989714 16.27560019
   4.76497818 15.05333538 12.64952801
   5.61514871 10.12915241 14.05496434
   1.42842690 11.33162578 16.77174786
   1.07865368 10.91526713  9.52151395
  18.74322920 17.72758251 16.27557754
  12.59506368  0.50191281 10.87439573
  14.14318605  5.68198463 16.25363616
  20.16990973  0.07395004  9.92550906
   2.22199659  2.70047811 12.55674536
   4.01322331  3.69700352 14.27483100
  15.00637423 12.76530096 12.22697399
  10.22576747  7.42551173 10.38808912
  13.44277935  1.05456827 15.35467792
   3.54535369 10.75328740 10.45651017
   6.26813510 10.91510113 10.54651395
  10.30702050  5.83862960 12.64390410
   5.57211440  2.87241773 11.55719116
   1.70677336  2.70792861 15.12086714
  19.78052584  9.86553456 16.12453308
  14.54261459  5.07285683 11.04652184
  14.10921452 16.15556596 12.56053950
   0.73477264  3.53889327 10.45741115
  14.24098386  3.53288896 14.72649273
   3.10901351 17.00414686 12.89022683
   1.87358442  5.07647937 13.76715442
   8.72358119  1.88880961 15.29375943
   1.54944614 12.62428529 14.40152365
  15.60335581  7.52728779 11.56015827
  18.71508366 13.21239433 15.16704509
  16.47777184 17.34580083 12.64014391
  13.99488411 11.49257558 14.87430337
  16.92262720  5.32192920 12.14235921
  22.88177496  5.69723711 14.71050338
   3.69909191 11.41424101 15.33825313
  14.82716522  5.92171361 13.65139239
  19.20429990  7.18323424 16.28355295
  22.44155659  0.49367766 11.20910044
   6.60386754  3.53992238 13.94315664
   5.83544193  8.02830396 12.39472924
   6.36561645 15.39927999 15.28776609
   4.76813504 12.42343385 13.08920785
   3.44435051  8.62697504 13.24126574
   5.25977398  7.66455011 14.96594913
  21.33745138  8.20429214 12.73515651
  20.36286723 12.76750071 12.47800922
  17.28034963  1.68227812 11.96927179
   5.20160188 16.84878525 10.96698378
   5.92209079  7.30036876 17.44420277
  14.76128700 15.99480528 15.95667475
   9.60385771 14.29878657 11.38342242
  21.48621551  3.55245637 13.66334053
   3.10309823  8.03742301  8.93260776
   3.63220806  5.50021683  8.34890949
   8.73253334  2.37219755  9.35415932
   0.81182231  5.29691191 17.02608834
  13.40739699  4.65476936  8.60535697
   5.74328809 13.97153021 17.47849036
   4.85490080 11.74990154  8.34376522
   6.44687148  7.10699146  9.87629901
   8.55333550 10.82900896  9.20004704
   5.29986877  1.01806602  9.62744117
   5.64688233  3.55318002  8.85384768
  11.73544815 16.16960912 12.22767567
  12.87919747 14.99921390 14.36477337
  12.75635425 11.71739106 17.06370322
  11.20399229  2.20627858 16.03082348
   6.13391045 12.58598210 15.29101737
  10.36859975 15.34582024 15.63956970
  17.92054648 11.17827123 17.46062150
  19.77923619 15.06964162 16.74343425
  14.98217662 13.39434743 16.70317091
   0.18247185  0.60016636 16.20906838
   6.65732603  0.03357828 15.96318189
  11.78342484 17.60676183 16.90735035
  10.43812444  7.99210792 19.62008371
   1.94841153 10.98908596 10.92575188
   9.57611096 13.87225809 15.44761862
  19.70678074  7.99967650 12.57708649
   0.40008717 17.94875972 10.58159830
   0.34415087  5.14987929 10.51358498
   0.21647142  2.07799951 15.38738077
  14.26674120 11.91302628 16.42706555
   5.00988925  8.62708307 13.70169494
  21.42278905 13.69169878 13.34099278
  12.18741762  2.00159257 11.45195358
   9.80315967  3.06432018 15.84370869
   1.95373172  2.52197018 10.94101594
  16.43233932  0.81266960 13.10088356
  15.56990047 16.27354966 11.76083937
  15.21965321  9.13359373 11.56390395
   4.64622068 16.53530673 12.47363180
   5.02419214  6.65434080 16.22841660
  15.77077513 14.73298439 15.98889357
   5.06672205 11.62851420 14.47925305
   8.63383069 13.32142384 12.34509184
  18.66681474 16.09318847 16.00798205
  20.59254194 16.52877539 13.76235223
  13.49689875 10.41223796 13.76520515
  13.80895505  2.08789478 14.12154461
  20.08975493  2.75647992 13.31199648
  19.55955797 10.94111471 17.36605601
   3.13099191  6.52942423  9.59392828
  18.51026388  5.07284540 11.87902451
   9.34522920  3.21642612 10.64589911
  20.04170055 13.58973252 16.03639649
   6.62072509 16.93534378 14.77816631
   0.54020935  5.98811771 13.50205012
  13.45117902 12.60314055 11.70943634
   5.39023881 13.63805192 12.15046292
  13.89802655  5.13345877 14.72687787
  22.83432301  4.93541864 16.19866055
  20.81044864  0.46044249 11.40392910
   2.45077451  3.53795903 13.92180386
   1.12715225 13.28353886 12.97472440
   5.43115570  3.73620607 15.08284236
  13.14328356  4.67138795 10.24864117
  11.16450728 11.36014033 16.70742333
   6.58027643 13.96469442 16.07177463
   4.88127424 11.65920103  9.99508876
  17.33522248 12.87158951 14.40530680
  23.08916634 17.94510219 14.79479761
  16.46058793 13.35205634 11.67438144
  18.44870588  1.07340093 15.50412759
  10.68289909  5.95194918 11.00303640
  10.52507163 16.95705573 15.98964347
  11.90698081  0.73592553 15.76004517
   5.71814202  6.71222076 11.31647527
  15.41693082  5.98004644 12.10686792
  10.78668788  5.74823750 14.21504433
   7.89661487 10.69048858 10.72869482
  18.81051137  8.63267094 15.58856121
   1.62029077 16.28843974 12.91760565
   4.96103075  2.61769098 10.04353415
   1.83153245  8.95161914 13.29886860
  13.05343995 15.44545689 12.76234739
  16.81931609 10.58998208 16.38791785
   6.71066321  3.80730338 12.34244318
   2.05611790 11.33184158 15.26210421
   8.27250820  0.33972559 15.55516395
  11.42485632  8.69657427 15.41485331
  11.49870667  9.02568737 18.72161443



--------------------------------------------------------------------------------------------------------


 k-point  1 :   0.0000 0.0000 0.0000  plane waves:  289505
 k-point  2 :   0.3333 0.0000 0.0000  plane waves:  289422
 k-point  3 :   0.0000 0.3333 0.0000  plane waves:  289550
 k-point  4 :   0.3333 0.3333 0.0000  plane waves:  289551
 k-point  5 :  -0.3333 0.3333 0.0000  plane waves:  289551

 maximum and minimum number of plane-waves per node :     72451    72309

 maximum number of plane-waves:    289551
 maximum index in each direction: 
   IXMAX=   43   IYMAX=   33   IZMAX=   49
   IXMIN=  -43   IYMIN=  -33   IZMIN=  -49


 real space projection operators:
  total allocation   :      13530.57 KBytes
  max/ min on nodes  :       3388.98       3376.43


 parallel 3D FFT for wavefunctions:
    minimum data exchange during FFTs selected (reduces bandwidth)
 parallel 3D FFT for charge:
    minimum data exchange during FFTs selected (reduces bandwidth)


 total amount of memory used by VASP MPI-rank0  4950739. kBytes
=======================================================================

   base      :      30000. kBytes
   nonlr-proj:      16609. kBytes
   fftplans  :     144307. kBytes
   grid      :     328089. kBytes
   one-center:       1057. kBytes
   wavefun   :    4430677. kBytes

     INWAV:  cpu time    0.0001: real time    0.0000
 Broyden mixing: mesh for mixing (old mesh)
   NGX = 85   NGY = 67   NGZ = 99
  (NGX  =256   NGY  =200   NGZ  =300)
  gives a total of 563805 points

 initial charge density was supplied:
 charge density of overlapping atoms calculated
 number of electron    1246.0000000 magnetization 
 keeping initial charge density in first step


--------------------------------------------------------------------------------------------------------


 Maximum index for non-local projection operator          659
 Maximum index for augmentation-charges         2326 (set IRDMAX)


--------------------------------------------------------------------------------------------------------


 First call to EWALD:  gamma=   0.079
 Maximum number of real-space cells 3x 3x 2
 Maximum number of reciprocal cells 3x 2x 3

    FEWALD:  cpu time    0.2335: real time    0.2342


--------------------------------------- Iteration      1(   1)  ---------------------------------------


    POTLOK:  cpu time    2.1145: real time    2.1403
    SETDIJ:  cpu time    3.9088: real time    3.9214
     EDDAV:  cpu time  660.9013: real time  663.3811
       DOS:  cpu time    0.0111: real time    0.0111
    --------------------------------------------
      LOOP:  cpu time  666.9358: real time  669.4539

 eigenvalue-minimisations  :  8478
 total energy-change (2. order) : 0.1278444E+05  (-0.4879022E+05)
 number of electron    1246.0000000 magnetization 
 augmentation part     1246.0000000 magnetization 

 DIPCOR: dipole corrections for dipol
 direction  3 min pos    57,
 dipolmoment           0.000000      0.000000      0.055379 electrons x Angstroem
 Tr[quadrupol]    -93431.023423

 energy correction for charged system         0.000000 eV
 dipol+quadrupol energy correction           -0.000025 eV
 added-field ion interaction          5.587561 eV  (added to PSCEN)


 Free energy of the ion-electron system (eV)
  ---------------------------------------------------
  alpha Z        PSCENC =       485.52298297
  Ewald energy   TEWEN  =    309937.12021498
  -Hartree energ DENC   =   -371875.88256308
  -exchange      EXHF   =         0.00000000
  -V(xc)+E(xc)   XCENC  =      3742.92498381
  PAW double counting   =     59729.87451082   -58746.54997561
  entropy T*S    EENTRO =        -1.59776517
  eigenvalues    EBANDS =     -4849.54816046
  atomic energy  EATOM  =     74362.57199611
  Solvation  Ediel_sol  =         0.00000000
  ---------------------------------------------------
  free energy    TOTEN  =     12784.43622436 eV

  energy without entropy =    12786.03398953  energy(sigma->0) =    12785.23510694


--------------------------------------------------------------------------------------------------------




--------------------------------------- Iteration      1(   2)  ---------------------------------------


     EDDAV:  cpu time  796.1450: real time  799.0241
       DOS:  cpu time    0.0057: real time    0.0057
    --------------------------------------------
      LOOP:  cpu time  796.1507: real time  799.0298

 eigenvalue-minimisations  : 10652
 total energy-change (2. order) :-0.1211075E+05  (-0.1171622E+05)
 number of electron    1246.0000000 magnetization 
 augmentation part     1246.0000000 magnetization 

 DIPCOR: dipole corrections for dipol
 direction  3 min pos    57,
 dipolmoment           0.000000      0.000000      0.055379 electrons x Angstroem
 Tr[quadrupol]    -93431.023423

 energy correction for charged system         0.000000 eV
 dipol+quadrupol energy correction           -0.000025 eV
 added-field ion interaction          5.587561 eV  (added to PSCEN)


 Free energy of the ion-electron system (eV)
  ---------------------------------------------------
  alpha Z        PSCENC =       485.52298297
  Ewald energy   TEWEN  =    309937.12021498
  -Hartree energ DENC   =   -371875.88256308
  -exchange      EXHF   =         0.00000000
  -V(xc)+E(xc)   XCENC  =      3742.92498381
  PAW double counting   =     59729.87451082   -58746.54997561
  entropy T*S    EENTRO =        -0.00000000
  eigenvalues    EBANDS =    -16961.89721063
  atomic energy  EATOM  =     74362.57199611
  Solvation  Ediel_sol  =         0.00000000
  ---------------------------------------------------
  free energy    TOTEN  =       673.68493936 eV

  energy without entropy =      673.68493936  energy(sigma->0) =      673.68493936


--------------------------------------------------------------------------------------------------------




--------------------------------------- Iteration      1(   3)  ---------------------------------------


     EDDAV:  cpu time  685.0791: real time  687.5924
       DOS:  cpu time    0.0059: real time    0.0060
    --------------------------------------------
      LOOP:  cpu time  685.0851: real time  687.5984

 eigenvalue-minimisations  :  8852
 total energy-change (2. order) :-0.2652077E+04  (-0.2642960E+04)
 number of electron    1246.0000000 magnetization 
 augmentation part     1246.0000000 magnetization 

 DIPCOR: dipole corrections for dipol
 direction  3 min pos    57,
 dipolmoment           0.000000      0.000000      0.055379 electrons x Angstroem
 Tr[quadrupol]    -93431.023423

 energy correction for charged system         0.000000 eV
 dipol+quadrupol energy correction           -0.000025 eV
 added-field ion interaction          5.587561 eV  (added to PSCEN)


 Free energy of the ion-electron system (eV)
  ---------------------------------------------------
  alpha Z        PSCENC =       485.52298297
  Ewald energy   TEWEN  =    309937.12021498
  -Hartree energ DENC   =   -371875.88256308
  -exchange      EXHF   =         0.00000000
  -V(xc)+E(xc)   XCENC  =      3742.92498381
  PAW double counting   =     59729.87451082   -58746.54997561
  entropy T*S    EENTRO =        -0.00000000
  eigenvalues    EBANDS =    -19613.97374462
  atomic energy  EATOM  =     74362.57199611
  Solvation  Ediel_sol  =         0.00000000
  ---------------------------------------------------
  free energy    TOTEN  =     -1978.39159462 eV

  energy without entropy =    -1978.39159462  energy(sigma->0) =    -1978.39159462


[...]
     17.92055     11.17827     17.46062         0.005388     -0.005130     -0.010507
     19.77924     15.06964     16.74343        -0.001892     -0.009409      0.005529
     14.98218     13.39435     16.70317         0.009299      0.003261     -0.006338
      0.18247      0.60017     16.20907         0.013225     -0.000896      0.001289
      6.65733      0.03358     15.96318        -0.003530      0.001510     -0.002266
     11.78342     17.60676     16.90735        -0.002963      0.002436     -0.005310
     10.43812      7.99211     19.62008        -0.000333     -0.004882      0.002750
      1.94841     10.98909     10.92575        -0.059950     -0.141753      0.032850
      9.57611     13.87226     15.44762         0.002038     -0.002196     -0.000311
     19.70678      7.99968     12.57709         0.145342     -0.169239     -0.301016
      0.40009     17.94876     10.58160         0.099264     -0.137782      0.302251
      0.34415      5.14988     10.51358         0.045926      0.032909      0.052456
      0.21647      2.07800     15.38738         0.000822      0.003935      0.006089
     14.26674     11.91303     16.42707         0.004434      0.006373     -0.001925
      5.00989      8.62708     13.70169         0.000661     -0.002022      0.000632
     21.42279     13.69170     13.34099         0.234961      0.222781     -0.649700
     12.18742      2.00159     11.45195         0.159875     -0.062153      0.462561
      9.80316      3.06432     15.84371         0.001901     -0.003006     -0.012502
      1.95373      2.52197     10.94102         0.078230     -0.116462      0.060397
     16.43234      0.81267     13.10088         0.086867     -0.071406     -0.323546
     15.56990     16.27355     11.76084        -0.478913      4.556127     -0.227855
     15.21965      9.13359     11.56390         0.075883      0.056767      0.221833
      4.64622     16.53531     12.47363        -0.712598      6.165387     -0.358323
      5.02419      6.65434     16.22842         0.005235     -0.007697     -0.000792
     15.77078     14.73298     15.98889         0.001492      0.008073     -0.003522
      5.06672     11.62851     14.47925         0.005507     -0.001425     -0.003745
      8.63383     13.32142     12.34509        -0.322936     -0.026319     -0.026678
     18.66681     16.09319     16.00798         0.006063      0.007967      0.008204
     20.59254     16.52878     13.76235         0.006124      0.003505      0.002250
     13.49690     10.41224     13.76521         0.000358      0.002739      0.002065
     13.80896      2.08789     14.12154         0.001505      0.004729     -0.000128
     20.08975      2.75648     13.31200        -0.164986     -0.009175     -0.436893
     19.55956     10.94111     17.36606        -0.003170     -0.006743     -0.006308
      3.13099      6.52942      9.59393        -0.095281     -0.110448      0.041487
     18.51026      5.07285     11.87902        -0.269574      0.092215      0.071389
      9.34523      3.21643     10.64590        -0.146622     -0.311905      0.222301
     20.04170     13.58973     16.03640        -0.004658     -0.002372      0.004806
      6.62073     16.93534     14.77817        -0.002285      0.002974      0.004166
      0.54021      5.98812     13.50205         0.279156      0.188263     -0.370856
     13.45118     12.60314     11.70944         3.908000     -0.858314     -2.487775
      5.39024     13.63805     12.15046         0.115846     -0.594210      0.013988
     13.89803      5.13346     14.72688        -0.000827      0.006101      0.006302
     22.83432      4.93542     16.19866        -0.013229      0.003186      0.001918
     20.81045      0.46044     11.40393         0.029727      0.047720      0.102589
      2.45077      3.53796     13.92180         0.000595      0.004166     -0.003400
      1.12715     13.28354     12.97472        -0.160558     -0.573007     -0.256897
      5.43116      3.73621     15.08284        -0.000420     -0.005982     -0.007577
     13.14328      4.67139     10.24864         8.333990     -5.355019     -3.591037
     11.16451     11.36014     16.70742         0.004745      0.001154      0.000792
      6.58028     13.96469     16.07177        -0.000962     -0.001453      0.002407
      4.88127     11.65920      9.99509         0.071849     -0.068286      0.010378
     17.33522     12.87159     14.40531        -0.001942      0.003581     -0.002085
     23.08917     17.94510     14.79480         0.007707     -0.000089      0.001525
     16.46059     13.35206     11.67438        -0.701846     -1.354272      0.337728
     18.44871      1.07340     15.50413        -0.005741      0.005687     -0.001755
     10.68290      5.95195     11.00304        -1.149230      0.539198      0.441309
     10.52507     16.95706     15.98964         0.004485      0.000316     -0.009469
     11.90698      0.73593     15.76005         0.002641      0.001935     -0.001970
      5.71814      6.71222     11.31648         0.023318     -0.124327     -0.108488
     15.41693      5.98005     12.10687        -0.140059     -0.471568     -0.862116
     10.78669      5.74824     14.21504        -0.003891      0.005371      0.000996
      7.89661     10.69049     10.72869        -0.131337     -0.075731     -0.061065
     18.81051      8.63267     15.58856        -0.001106     -0.007160     -0.000018
      1.62029     16.28844     12.91761        -0.360318      6.431740     -0.520060
      4.96103      2.61769     10.04353        -0.071902     -0.040594      0.057324
      1.83153      8.95162     13.29887         0.019611     -0.141022     -0.299235
     13.05344     15.44546     12.76235       -22.321531    -15.850019      4.720963
     16.81932     10.58998     16.38792         0.002232     -0.000356     -0.007200
      6.71066      3.80730     12.34244        -0.222585      0.019391     -0.778940
      2.05612     11.33184     15.26210        -0.003908      0.006312      0.000995
      8.27251      0.33973     15.55516         0.002191      0.004737     -0.003968
     11.42486      8.69657     15.41485        -0.003895     -0.002406     -0.004043
     11.49871      9.02569     18.72161         0.001807      0.003059     -0.010214
 -----------------------------------------------------------------------------------
    total drift:                                0.271262      0.295649      0.263754


--------------------------------------------------------------------------------------------------------



  FREE ENERGIE OF THE ION-ELECTRON SYSTEM (eV)
  ---------------------------------------------------
  free  energy   TOTEN  =     -1851.99936682 eV

  energy  without entropy=    -1851.99936586  energy(sigma->0) =    -1851.99936634



--------------------------------------------------------------------------------------------------------


    POTLOK:  cpu time    5.8625: real time    5.8804


--------------------------------------------------------------------------------------------------------


 NEB: the previous image is higher in energy: F
 NEB: the next image is higher in energy    : F
 NEB: image is at an extrema
 NEB: diff energy (min, max):     0.964136    1.472309

 NEB: Tangent
 ----------------------------------------------
     -0.19236      0.02464     -0.31013
      0.22699      0.09347      0.41537
     -0.00020      0.00050      0.00028
      0.00000      0.00000      0.00000
      0.00000      0.00000      0.00000
      0.00000      0.00000      0.00000
      0.00000      0.00000      0.00000
      0.00000      0.00000      0.00000
      0.00000      0.00000      0.00000
     -0.00012     -0.00000      0.00018
      0.00000      0.00000      0.00000
     -0.00035      0.00014      0.00027
      0.00304     -0.00097      0.00171
     -0.00059     -0.00004      0.00013
     -0.00018     -0.00023      0.00034
      0.00000      0.00000      0.00000
      0.00000      0.00000      0.00000
     -0.00045      0.00021     -0.00005
      0.00000      0.00000      0.00000
      0.00000      0.00000      0.00000
      0.00000      0.00000      0.00000
      0.00000      0.00000      0.00000
      0.00000      0.00000      0.00000
     -0.00068     -0.00020      0.00009
      0.00000      0.00000      0.00000
      0.00000      0.00000      0.00000
      0.00000      0.00000      0.00000
      0.00000      0.00000      0.00000
      0.00000      0.00000      0.00000
      0.00000      0.00000      0.00000
     -0.00035     -0.00013     -0.00019
      0.00266      0.00123      0.00260
     -0.00055      0.00018      0.00021
      0.00000      0.00000      0.00000
      0.00000      0.00000      0.00000
      0.00000      0.00000      0.00000
      0.00000      0.00000      0.00000
      0.00000      0.00000      0.00000
      0.00000      0.00000      0.00000
      0.00000      0.00000      0.00000
      0.00000      0.00000      0.00000
      0.00000      0.00000      0.00000
     -0.00018      0.00007      0.00021
     -0.00032      0.00001     -0.00001
      0.00136     -0.00065     -0.00008
     -0.00064     -0.00023      0.00034
      0.49941     -0.43546     -0.17811
     -0.07538      0.01707      0.02184
     -0.13246     -0.00081      0.02326
      0.00571     -0.00096      0.19046
      0.00000      0.00000      0.00000
      0.00000      0.00000      0.00000
     -0.00028     -0.00009     -0.00045
      0.00000      0.00019      0.00045
      0.00002     -0.00011      0.00002
      0.00000      0.00000      0.00000
      0.00000      0.00000      0.00000
      0.00000      0.00000      0.00000
      0.00000      0.00000      0.00000
     -0.00019      0.00003     -0.00006
      0.00000      0.00000      0.00000
      0.00000      0.00000      0.00000
     -0.00012      0.00344      0.00083
      0.00000      0.00000      0.00000
     -0.00054      0.00013     -0.00004
      0.00000      0.00000      0.00000
      0.00000      0.00000      0.00000
      0.00000      0.00000      0.00000
     -0.00011      0.00009     -0.00013
     -0.00000      0.00016      0.00022
      0.02444     -0.01211      0.01436
      0.00000      0.00000      0.00000
      0.00000      0.00000      0.00000
      0.00000      0.00000      0.00000
      0.00000      0.00000      0.00000
      0.00000      0.00000      0.00000
     -0.00006      0.00013     -0.00035
     -0.00255     -0.00119     -0.00075
      0.00229     -0.01111      0.01479
     -0.00040      0.00012     -0.00007
      0.00000      0.00000      0.00000
      0.00000      0.00000      0.00000
      0.00000      0.00000      0.00000
     -0.00114      0.00164      0.00011
      0.00000      0.00000      0.00000
      0.00000      0.00000      0.00000
      0.00000      0.00000      0.00000
      0.00000      0.00000      0.00000
      0.00000      0.00000      0.00000
     -0.00023     -0.00003     -0.00016
     -0.00043     -0.00005     -0.00029
     -0.00121     -0.00165      0.00140
      0.00000      0.00000      0.00000
      0.00000      0.00000      0.00000
     -0.00003      0.00133      0.00011
      0.00000      0.00000      0.00000
     -0.00286      0.00078      0.00076
     -0.00525      0.00709     -0.00343
      0.00000      0.00000      0.00000
     -0.00090     -0.00021      0.00042
     -0.00004      0.00001     -0.00015
      0.00028      0.00031     -0.00022
     -0.00008      0.00020      0.00044
      0.00000      0.00000      0.00000
      0.00083      0.00071     -0.00088
     -0.00091      0.00016     -0.00003
      0.00000      0.00000      0.00000
      0.00000      0.00000      0.00000
      0.00000      0.00000      0.00000
     -0.00179     -0.00169      0.00159
      0.00025     -0.00004      0.00008
      0.00000      0.00000      0.00000
      0.00070      0.00254     -0.00060
      0.00003     -0.00009      0.00001
      0.00000      0.00000      0.00000
      0.00000      0.00000      0.00000
      0.00000      0.00000      0.00000
     -0.13357      0.12520     -0.00400
      0.00000      0.00000      0.00000
      0.00000      0.00000      0.00000
      0.00478      0.00027      0.00284
      0.00000      0.00000      0.00000
      0.00224      0.01785     -0.02662
      0.00000      0.00000      0.00000
     -0.00021     -0.00006      0.00003
      0.00000      0.00000      0.00000
      0.00313     -0.00021      0.00346
      0.00000      0.00000      0.00000
     -0.00044      0.00015     -0.00006
      0.00000      0.00000      0.00000
      0.00053      0.00004      0.00030
      0.00023     -0.00015      0.00016
      0.00000      0.00000      0.00000
     -0.00117     -0.00044      0.00032
      0.00000      0.00000      0.00000
      0.00081     -0.00175      0.00091
      0.00000      0.00000      0.00000
      0.00000      0.00000      0.00000
      0.00019      0.00008     -0.00056
      0.00000      0.00000      0.00000
      0.00000      0.00000      0.00000
      0.00082      0.00078     -0.00006
      0.00000      0.00000      0.00000
      0.00000      0.00000      0.00000
      0.00000      0.00000      0.00000
      0.00000      0.00000      0.00000
     -0.00014      0.00038     -0.00000
     -0.00034     -0.00008      0.00014
      0.00000      0.00000      0.00000
      0.00000      0.00000      0.00000
      0.00000      0.00000      0.00000
      0.00079      0.00017     -0.00052
      0.00000      0.00000      0.00000
      0.00049      0.00036     -0.00085
      0.00018      0.00053     -0.00110
      0.00004      0.00026      0.00021
      0.00000      0.00000      0.00000
     -0.00037      0.00042     -0.00002
      0.00000      0.00000      0.00000
     -0.00693      0.00033      0.00377
      0.00000      0.00000      0.00000
      0.00015     -0.00003     -0.00001
      0.00005      0.00035     -0.00028
      0.00000      0.00000      0.00000
     -0.00044      0.00001     -0.00017
      0.00000      0.00000      0.00000
     -0.00002     -0.00015     -0.00012
      0.00000      0.00000      0.00000
     -0.00076      0.00092      0.00134
      0.00000      0.00000      0.00000
      0.00000      0.00000      0.00000
      0.00075      0.00015     -0.00001
      0.00000      0.00000      0.00000
      0.00000      0.00000      0.00000
      0.00000      0.00000      0.00000
      0.00000      0.00000      0.00000
     -0.00017      0.00056     -0.00028
     -0.00056     -0.00119      0.00052
      0.00000      0.00000      0.00000
      0.00000      0.00000      0.00000
      0.00000      0.00000      0.00000
      0.00000      0.00000      0.00000
      0.00000      0.00000      0.00000
     -0.00009     -0.00018      0.00020
      0.00000      0.00000      0.00000
     -0.00083     -0.00048      0.00054
      0.00000      0.00000      0.00000
      0.00000      0.00000      0.00000
      0.00000      0.00000      0.00000
      0.00000      0.00000      0.00000
      0.00000      0.00000      0.00000
      0.00000      0.00000      0.00000
     -0.00048     -0.00025     -0.00003
     -0.01850      0.00047     -0.00282
      0.00072      0.00252     -0.00175
      0.00043      0.00012     -0.00017
     -0.00470      0.00785     -0.00370
     -0.00098      0.00027     -0.00027
     -0.00038     -0.00002      0.00011
     -0.00765     -0.00205      0.00220
      0.00033     -0.00001      0.00000
     -0.00081      0.00071     -0.00045
     -0.00065      0.00313      0.00017
      0.04628     -0.03222     -0.04010
      0.00000      0.00000      0.00000
     -0.00754      0.01450     -0.00813
      0.00000      0.00000      0.00000
      0.00000      0.00000      0.00000
      0.00000      0.00000      0.00000
     -0.00003      0.00014      0.00028
     -0.00799     -0.00289      0.00504
     -0.00002     -0.00018      0.00022
      0.00000      0.00000      0.00000
      0.00000      0.00000      0.00000
     -0.00068      0.00074      0.00001
      0.00000      0.00000      0.00000
      0.00000      0.00000      0.00000
      0.00000      0.00000      0.00000
      0.00000      0.00000      0.00000
      0.00000      0.00000      0.00000
      0.00006      0.00001      0.00036
     -0.00189     -0.00207      0.00171
     -0.00004     -0.00012     -0.00011
      0.00000      0.00000      0.00000
     -0.00091     -0.00047      0.00046
      0.00003      0.00006      0.00026
      0.00111      0.00067      0.00056
      0.00033      0.00038     -0.00027
      0.00000      0.00000      0.00000
     -0.00074      0.00000      0.00010
      0.00000      0.00000      0.00000
      0.00000      0.00000      0.00000
      0.00000      0.00000      0.00000
     -0.00026      0.00007      0.00014
     -0.00038      0.00070      0.00030
      0.00000      0.00000      0.00000
      0.00000      0.00000      0.00000
      0.00000      0.00000      0.00000
      0.00068     -0.00020      0.00032
     -0.00015      0.00005      0.00021
      0.00000      0.00000      0.00000
     -0.00003      0.00019     -0.00002
      0.00000      0.00000      0.00000
     -0.00013      0.00010     -0.00003
      0.00000      0.00000      0.00000
     -0.01782      0.02645     -0.01425
     -0.00189      0.00045      0.00045
      0.00000      0.00000      0.00000
     -0.00030     -0.00057      0.00037
      0.00017      0.00010      0.00011
      0.00000      0.00000      0.00000
     -0.00016     -0.00006      0.00029
      0.00000      0.00000      0.00000
     -0.00072      0.00544     -0.00033
      0.00064      0.00269     -0.00029
      0.00000      0.00000      0.00000
      0.00000      0.00000      0.00000
      0.00081     -0.00077      0.00012
      0.00000      0.00000      0.00000
     -0.00074      0.00015      0.00018
      0.00000      0.00000      0.00000
      0.00000      0.00000      0.00000
      0.00000      0.00000      0.00000
      0.00000      0.00000      0.00000
     -0.00204      0.00004      0.00084
      0.00000      0.00000      0.00000
     -0.00003      0.00022      0.00003
     -0.00089      0.00131      0.00001
      0.01592     -0.00865      0.00946
     -0.16874      0.13058     -0.11242

 NEB: forces: par spring, perp REAL, dneb     1.717625    0.156625    0.000000
 NEB: distance to prev, next image, angle between     0.548485    0.892010  107.546880
 NEB: projections on to tangent (spring, REAL)     1.717625    0.006070

 stress matrix after NEB project (eV)
    -32.46135      0.05394      0.29315
      0.05394    -32.97792     -0.07832
      0.29315     -0.07832    -24.86109
  FORCES: max atom, RMS     0.048082    0.009539
  FORCE total and by dimension    0.156742    0.038580
  Stress total and by dimension   52.531389   32.977923
 OPT: skip step - force has converged


--------------------------------------------------------------------------------------------------------


  
 reached required accuracy - stopping structural energy minimisation
 writing wavefunctions
     LOOP+:  cpu time 9869.4338: real time 9908.9654
    4ORBIT:  cpu time    0.0000: real time    0.0000

 total amount of memory used by VASP MPI-rank0  4950739. kBytes
=======================================================================

   base      :      30000. kBytes
   nonlr-proj:      16609. kBytes
   fftplans  :     144307. kBytes
   grid      :     328089. kBytes
   one-center:       1057. kBytes
   wavefun   :    4430677. kBytes

  
  
 General timing and accounting informations for this job:
 ========================================================
  
                  Total CPU time used (sec):    10021.177
                            User time (sec):     9953.189
                          System time (sec):       67.988
                         Elapsed time (sec):    10071.669
  
                   Maximum memory used (kb):     5186192.
                   Average memory used (kb):           0.
  
                          Minor page faults:      6521855
                          Major page faults:           81
                 Voluntary context switches:         2225
