 vasp.5.4.4.18Apr17-6-g9f103f2a35 (build Oct 20 2021 08:33:53) complex           
 executed on             LinuxGNU date 2025.03.08  21:53:45
 running on   64 total cores
 each image running on    8 cores
 distrk:  each k-point on    8 cores,    1 groups
 distr:  one band on NCORES_PER_BAND=   4 cores,    2 groups


--------------------------------------------------------------------------------------------------------


 INCAR:
 POTCAR:    PAW_PBE C 08Apr2002                   
 POTCAR:    PAW_PBE H 15Jun2001                   
 POTCAR:    PAW_PBE O 08Apr2002                   
 POTCAR:    PAW_PBE Si 05Jan2001                  
 POTCAR:    PAW_PBE W 08Apr2002                   
 POTCAR:    PAW_PBE C 08Apr2002                   
   VRHFIN =C: s2p2                                                              
   LEXCH  = PE                                                                  
   EATOM  =   147.1560 eV,   10.8157 Ry                                         
                                                                                
   TITEL  = PAW_PBE C 08Apr2002                                                 
   LULTRA =        F    use ultrasoft PP ?                                      
   IUNSCR =        1    unscreen: 0-lin 1-nonlin 2-no                           
   RPACOR =    1.200    partial core radius                                     
   POMASS =   12.011; ZVAL   =    4.000    mass and valenz                      
   RCORE  =    1.500    outmost cutoff radius                                   
   RWIGS  =    1.630; RWIGS  =    0.863    wigner-seitz radius (au A)           
   ENMAX  =  400.000; ENMIN  =  300.000 eV                                      
   ICORE  =        2    local potential                                         
   LCOR   =        T    correct aug charges                                     
   LPAW   =        T    paw PP                                                  
   EAUG   =  644.873                                                            
   DEXC   =    0.000                                                            
   RMAX   =    1.529    core radius for proj-oper                               
   RAUG   =    1.300    factor for augmentation sphere                          
   RDEP   =    1.501    radius for radial grids                                 
   RDEPT  =    1.300    core radius for aug-charge                              
                                                                                
   Atomic configuration                                                         
    4 entries                                                                   
     n  l   j            E        occ.                                          
     1  0  0.50      -273.3789   2.0000                                         
     2  0  0.50       -13.7508   2.0000                                         
     2  1  0.50        -5.2854   2.0000                                         
     3  2  1.50        -5.4423   0.0000                                         
   Description                                                                  
     l       E           TYP  RCUT    TYP  RCUT                                 
     0    -13.7508458     23  1.200                                             
     0     -8.2022199     23  1.200                                             
     1     -5.2854383     23  1.500                                             
     1     34.0145650     23  1.500                                             
     2     -5.4423304      7  1.500                                             
  local pseudopotential read in
  partial core-charges read in
  partial kinetic energy density read in
  atomic valenz-charges read in
  non local Contribution for L=           0  read in
    real space projection operators read in
  non local Contribution for L=           0  read in
    real space projection operators read in
  non local Contribution for L=           1  read in
    real space projection operators read in
  non local Contribution for L=           1  read in
    real space projection operators read in
    PAW grid and wavefunctions read in

   number of l-projection  operators is LMAX  =           4
   number of lm-projection operators is LMMAX =           8

 POTCAR:    PAW_PBE H 15Jun2001                   
   VRHFIN =H: ultrasoft test                                                    
   LEXCH  = PE                                                                  
   EATOM  =    12.4884 eV,    0.9179 Ry                                         
                                                                                
   TITEL  = PAW_PBE H 15Jun2001                                                 
   LULTRA =        F    use ultrasoft PP ?                                      
   IUNSCR =        0    unscreen: 0-lin 1-nonlin 2-no                           
   RPACOR =    0.000    partial core radius                                     
   POMASS =    1.000; ZVAL   =    1.000    mass and valenz                      
   RCORE  =    1.100    outmost cutoff radius                                   
   RWIGS  =    0.700; RWIGS  =    0.370    wigner-seitz radius (au A)           
   ENMAX  =  250.000; ENMIN  =  200.000 eV                                      
   RCLOC  =    0.701    cutoff for local pot                                    
   LCOR   =        T    correct aug charges                                     
   LPAW   =        T    paw PP                                                  
   EAUG   =  400.000                                                            
   RMAX   =    1.123    core radius for proj-oper                               
   RAUG   =    1.200    factor for augmentation sphere                          
   RDEP   =    1.112    radius for radial grids                                 
   RDEPT  =    0.926    core radius for aug-charge                              
                                                                                
   Atomic configuration                                                         
    2 entries                                                                   
     n  l   j            E        occ.                                          
     1  0  0.50        -6.4927   1.0000                                         
     2  1  0.50        -3.4015   0.0000                                         
   Description                                                                  
     l       E           TYP  RCUT    TYP  RCUT                                 
     0     -6.4927494     23  1.100                                             
     0      6.8029130     23  1.100                                             
     1     -4.0817478     23  1.100                                             
  local pseudopotential read in
  atomic valenz-charges read in
  non local Contribution for L=           0  read in
    real space projection operators read in
  non local Contribution for L=           0  read in
    real space projection operators read in
  non local Contribution for L=           1  read in
    real space projection operators read in
    PAW grid and wavefunctions read in

   number of l-projection  operators is LMAX  =           3
   number of lm-projection operators is LMMAX =           5

 POTCAR:    PAW_PBE O 08Apr2002                   
   VRHFIN =O: s2p4                                                              
   LEXCH  = PE                                                                  
   EATOM  =   432.3788 eV,   31.7789 Ry                                         
                                                                                
   TITEL  = PAW_PBE O 08Apr2002                                                 
   LULTRA =        F    use ultrasoft PP ?                                      
   IUNSCR =        1    unscreen: 0-lin 1-nonlin 2-no                           
   RPACOR =    1.200    partial core radius                                     
   POMASS =   16.000; ZVAL   =    6.000    mass and valenz                      
   RCORE  =    1.520    outmost cutoff radius                                   
   RWIGS  =    1.550; RWIGS  =    0.820    wigner-seitz radius (au A)           
   ENMAX  =  400.000; ENMIN  =  300.000 eV                                      
   ICORE  =        2    local potential                                         
   LCOR   =        T    correct aug charges                                     
   LPAW   =        T    paw PP                                                  
   EAUG   =  605.392                                                            
   DEXC   =    0.000                                                            
   RMAX   =    1.553    core radius for proj-oper                               
   RAUG   =    1.300    factor for augmentation sphere                          
   RDEP   =    1.550    radius for radial grids                                 
   RDEPT  =    1.329    core radius for aug-charge                              
                                                                                
   Atomic configuration                                                         
    4 entries                                                                   
     n  l   j            E        occ.                                          
     1  0  0.50      -514.6923   2.0000                                         
     2  0  0.50       -23.9615   2.0000                                         
     2  1  0.50        -9.0305   4.0000                                         
     3  2  1.50        -9.5241   0.0000                                         
   Description                                                                  
     l       E           TYP  RCUT    TYP  RCUT                                 
     0    -23.9615318     23  1.200                                             
     0     -9.5240782     23  1.200                                             
     1     -9.0304911     23  1.520                                             
     1      8.1634956     23  1.520                                             
     2     -9.5240782      7  1.500                                             
  local pseudopotential read in
  partial core-charges read in
  partial kinetic energy density read in
  kinetic energy density of atom read in
  atomic valenz-charges read in
  non local Contribution for L=           0  read in
    real space projection operators read in
  non local Contribution for L=           0  read in
    real space projection operators read in
  non local Contribution for L=           1  read in
    real space projection operators read in
  non local Contribution for L=           1  read in
    real space projection operators read in
    PAW grid and wavefunctions read in

   number of l-projection  operators is LMAX  =           4
   number of lm-projection operators is LMMAX =           8

 POTCAR:    PAW_PBE Si 05Jan2001                  
   VRHFIN =Si: s2p2                                                             
   LEXCH  = PE                                                                  
   EATOM  =   103.0669 eV,    7.5752 Ry                                         
                                                                                
   TITEL  = PAW_PBE Si 05Jan2001                                                
   LULTRA =        F    use ultrasoft PP ?                                      
   IUNSCR =        1    unscreen: 0-lin 1-nonlin 2-no                           
   RPACOR =    1.500    partial core radius                                     
   POMASS =   28.085; ZVAL   =    4.000    mass and valenz                      
   RCORE  =    1.900    outmost cutoff radius                                   
   RWIGS  =    2.480; RWIGS  =    1.312    wigner-seitz radius (au A)           
   ENMAX  =  245.345; ENMIN  =  184.009 eV                                      
   ICORE  =        2    local potential                                         
   LCOR   =        T    correct aug charges                                     
   LPAW   =        T    paw PP                                                  
   EAUG   =  322.069                                                            
   DEXC   =    0.000                                                            
   RMAX   =    1.950    core radius for proj-oper                               
   RAUG   =    1.300    factor for augmentation sphere                          
   RDEP   =    1.993    radius for radial grids                                 
   RDEPT  =    1.837    core radius for aug-charge                              
                                                                                
   Atomic configuration                                                         
    6 entries                                                                   
     n  l   j            E        occ.                                          
     1  0  0.50     -1785.8828   2.0000                                         
     2  0  0.50      -139.4969   2.0000                                         
     2  1  1.50       -95.5546   6.0000                                         
     3  0  0.50       -10.8127   2.0000                                         
     3  1  0.50        -4.0811   2.0000                                         
     3  2  1.50        -4.0817   0.0000                                         
   Description                                                                  
     l       E           TYP  RCUT    TYP  RCUT                                 
     0    -10.8127223     23  1.900                                             
     0     -7.6451159     23  1.900                                             
     1     -4.0811372     23  1.900                                             
     1      2.4879257     23  1.900                                             
     2     -4.0817478      7  1.900                                             
  local pseudopotential read in
  partial core-charges read in
  partial kinetic energy density read in
  atomic valenz-charges read in
  non local Contribution for L=           0  read in
    real space projection operators read in
  non local Contribution for L=           0  read in
    real space projection operators read in
  non local Contribution for L=           1  read in
    real space projection operators read in
  non local Contribution for L=           1  read in
    real space projection operators read in
    PAW grid and wavefunctions read in

   number of l-projection  operators is LMAX  =           4
   number of lm-projection operators is LMMAX =           8

 POTCAR:    PAW_PBE W 08Apr2002                   
   VRHFIN =W : 6s5d                                                             
   LEXCH  = PE                                                                  
   EATOM  =   204.6103 eV,   15.0384 Ry                                         
                                                                                
   TITEL  = PAW_PBE W 08Apr2002                                                 
   LULTRA =        F    use ultrasoft PP ?                                      
   IUNSCR =        1    unscreen: 0-lin 1-nonlin 2-no                           
   RPACOR =    2.330    partial core radius                                     
   POMASS =  183.850; ZVAL   =    6.000    mass and valenz                      
   RCORE  =    2.750    outmost cutoff radius                                   
   RWIGS  =    2.750; RWIGS  =    1.455    wigner-seitz radius (au A)           
   ENMAX  =  223.057; ENMIN  =  167.293 eV                                      
   RCLOC  =    2.147    cutoff for local pot                                    
   LCOR   =        T    correct aug charges                                     
   LPAW   =        T    paw PP                                                  
   EAUG   =  373.438                                                            
   DEXC   =    0.000                                                            
   RMAX   =    2.801    core radius for proj-oper                               
   RAUG   =    1.300    factor for augmentation sphere                          
   RDEP   =    2.886    radius for radial grids                                 
   RDEPT  =    2.230    core radius for aug-charge                              
                                                                                
   Atomic configuration                                                         
   16 entries                                                                   
     n  l   j            E        occ.                                          
     1  0  0.50    -69465.5836   2.0000                                         
     2  0  0.50    -11986.2642   2.0000                                         
     2  1  1.50    -10479.8616   6.0000                                         
     3  0  0.50     -2759.0758   2.0000                                         
     3  1  1.50     -2313.1857   6.0000                                         
     3  2  2.50     -1801.1185  10.0000                                         
     4  0  0.50      -567.6791   2.0000                                         
     4  1  1.50      -421.4694   6.0000                                         
     4  2  2.50      -236.3473  10.0000                                         
     4  3  3.50       -31.2666  14.0000                                         
     5  0  0.50       -77.1085   2.0000                                         
     5  1  1.50       -41.3856   6.0000                                         
     5  2  2.50        -3.3185   5.0000                                         
     6  0  0.50        -5.1438   1.0000                                         
     6  1  0.50        -3.8096   0.0000                                         
     5  3  2.50        -1.3606   0.0000                                         
   Description                                                                  
     l       E           TYP  RCUT    TYP  RCUT                                 
     2     -3.3185288     23  2.500                                             
     2     -1.5965414     23  2.500                                             
     0     -5.1438054     23  2.500                                             
     0      4.9117504     23  2.500                                             
     1      2.7211652     23  2.750                                             
     1     27.2116520     23  2.750                                             
  local pseudopotential read in
  partial core-charges read in
  partial kinetic energy density read in
  atomic valenz-charges read in
  non local Contribution for L=           2  read in
    real space projection operators read in
  non local Contribution for L=           2  read in
    real space projection operators read in
  non local Contribution for L=           0  read in
    real space projection operators read in
  non local Contribution for L=           0  read in
    real space projection operators read in
  non local Contribution for L=           1  read in
    real space projection operators read in
  non local Contribution for L=           1  read in
    real space projection operators read in
    PAW grid and wavefunctions read in

   number of l-projection  operators is LMAX  =           6
   number of lm-projection operators is LMMAX =          18

 Optimization of the real space projectors (new method)

 maximal supplied QI-value         = 25.13
 optimisation between [QCUT,QGAM] = [ 11.31, 22.87] = [ 35.82,146.48] Ry 
 Optimized for a Real-space Cutoff    1.00 Angstroem

   l    n(q)    QCUT    max X(q) W(low)/X(q) W(high)/X(q)  e(spline) 
   0      7    11.310   115.676    0.43E-03    0.13E-02    0.19E-06
   0      7    11.310    87.132    0.43E-03    0.13E-02    0.18E-06
   1      6    11.310     4.429    0.42E-03    0.74E-03    0.11E-06
   1      6    11.310     2.733    0.34E-03    0.55E-03    0.92E-07
 Optimization of the real space projectors (new method)

 maximal supplied QI-value         = 34.20
 optimisation between [QCUT,QGAM] = [ 11.29, 22.57] = [ 35.68,142.71] Ry 
 Optimized for a Real-space Cutoff    1.16 Angstroem

   l    n(q)    QCUT    max X(q) W(low)/X(q) W(high)/X(q)  e(spline) 
   0      8    11.287    19.460    0.40E-03    0.73E-03    0.16E-06
   0      8    11.287    12.209    0.38E-03    0.70E-03    0.15E-06
   1      7    11.287     4.655    0.22E-03    0.25E-04    0.22E-06
 Optimization of the real space projectors (new method)

 maximal supplied QI-value         = 24.76
 optimisation between [QCUT,QGAM] = [ 11.39, 22.77] = [ 36.31,145.25] Ry 
 Optimized for a Real-space Cutoff    1.00 Angstroem

   l    n(q)    QCUT    max X(q) W(low)/X(q) W(high)/X(q)  e(spline) 
   0      7    11.387    20.381    0.39E-03    0.13E-02    0.15E-06
   0      7    11.387    15.268    0.42E-03    0.14E-02    0.17E-06
   1      6    11.387     5.964    0.41E-03    0.11E-02    0.17E-06
   1      6    11.387     5.382    0.39E-03    0.87E-03    0.15E-06
 Optimization of the real space projectors (new method)

 maximal supplied QI-value         = 19.84
 optimisation between [QCUT,QGAM] = [ 11.31, 22.82] = [ 35.82,145.81] Ry 
 Optimized for a Real-space Cutoff    1.16 Angstroem

   l    n(q)    QCUT    max X(q) W(low)/X(q) W(high)/X(q)  e(spline) 
   0      8    11.310   159.560    0.27E-03    0.30E-03    0.39E-07
   0      8    11.310   115.863    0.27E-03    0.30E-03    0.38E-07
   1      7    11.310    88.339    0.28E-03    0.28E-03    0.77E-07
   1      7    11.310    48.592    0.27E-03    0.27E-03    0.74E-07
 Optimization of the real space projectors (new method)

 maximal supplied QI-value         = 13.61
 optimisation between [QCUT,QGAM] = [ 11.43, 22.86] = [ 36.58,146.31] Ry 
 Optimized for a Real-space Cutoff    1.56 Angstroem

   l    n(q)    QCUT    max X(q) W(low)/X(q) W(high)/X(q)  e(spline) 
   2     10    11.429   130.855    0.22E-03    0.64E-03    0.11E-05
   2     10    11.429   114.007    0.22E-03    0.64E-03    0.11E-05
   0     11    11.429    84.709    0.39E-04    0.67E-04    0.23E-06
   0     11    11.429    49.163    0.35E-04    0.62E-04    0.21E-06
   1     10    11.429    15.765    0.84E-04    0.15E-03    0.24E-06
   1     10    11.429    10.638    0.58E-04    0.12E-03    0.19E-06

 ----------------------------------------------------------------------------- 
|                                                                             |
|  ADVICE TO THIS USER RUNNING 'VASP/VAMP'   (HEAR YOUR MASTER'S VOICE ...):  |
|                                                                             |
|      You enforced a specific xc-type in the INCAR file,                     |
|      a different type was found on the POTCAR file                          |
|          I HOPE YOU KNOW, WHAT YOU ARE  DOING                               |
|                                                                             |
 ----------------------------------------------------------------------------- 

  PAW_PBE C 08Apr2002                   :
 energy of atom  1       EATOM= -147.1560
 kinetic energy error for atom=    0.0076 (will be added to EATOM!!)
  PAW_PBE H 15Jun2001                   :
 energy of atom  2       EATOM=  -12.4884
 kinetic energy error for atom=    0.0020 (will be added to EATOM!!)
  PAW_PBE O 08Apr2002                   :
 energy of atom  3       EATOM= -432.3788
 kinetic energy error for atom=    0.0224 (will be added to EATOM!!)
  PAW_PBE Si 05Jan2001                  :
 energy of atom  4       EATOM= -103.0669
 kinetic energy error for atom=    0.0006 (will be added to EATOM!!)
  PAW_PBE W 08Apr2002                   :
 energy of atom  5       EATOM= -204.6103
 kinetic energy error for atom=    0.0017 (will be added to EATOM!!)


 POSCAR:  C  H  O Si  W                          
  positions in direct lattice
  velocities in cartesian coordinates
 exchange correlation table for  LEXCH =        9
   RHO(1)=    0.500       N(1)  =     2000
   RHO(2)=  100.500       N(2)  =     4000

 VTST: version 3.2, (02/03/18)

 CHAIN: initializing optimizer
 
 OPT: Using Quick-Min optimizer
 OPT: QM, Init
 OPT: QM, MAXMOVE       0.200000
 OPT: QM, TIMESTEP      0.100000
 
 CHAIN: Read ICHAIN            0
 CHAIN: Running the NEB
 NEB:          SPRING     -5.000000
 NEB:          LCLIMB      T
 NEB:     LTANGENTOLD      F
 NEB:           LDNEB      F
 NEB:        LDNEBORG      F
 NEB:        LNEBCELL      F
 NEB:          EFIRST      0.000000
 NEB:           ELAST      0.000000

 POSCAR:  C  H  O Si  W                          
  positions in cartesian coordinates
  No initial velocities read in

 POSCAR:  C  H  O Si  W                          
  positions in cartesian coordinates
  No initial velocities read in



--------------------------------------------------------------------------------------------------------


 ion  position               nearest neighbor table
   1  0.517  0.483  0.748-  50 1.09  51 1.10 279 1.93
   2  0.422  0.519  0.774-  52 1.09   3 1.41   4 1.51 279 2.55
   3  0.382  0.507  0.736-  53 1.09   2 1.41   5 1.52 279 2.35
   4  0.436  0.596  0.792-  54 1.10  55 1.10  56 1.10   2 1.51
   5  0.340  0.443  0.737-  57 1.10  58 1.10  59 1.10   3 1.52
   6  0.761  0.103  0.651- 134 0.97
   7  0.926  0.279  0.356-  82 0.98
   8  0.793  0.207  0.373- 117 0.97
   9  0.975  0.944  0.325- 126 0.97
  10  0.626  0.963  0.375- 128 0.98
  11  0.821  0.995  0.369- 146 0.97
  12  0.750  0.141  0.458- 184 0.98
  13  0.916  0.249  0.507- 189 0.97
  14  0.583  0.304  0.306- 194 0.97
  15  0.889  0.334  0.615- 100 0.98
  16  0.590  0.360  0.614- 145 0.97
  17  0.593  0.871  0.578- 187 0.99
  18  0.025  0.336  0.658- 193 0.97
  19  0.935  0.420  0.454- 182 0.98
  20  0.746  0.530  0.422-  96 1.00
  21  0.797  0.382  0.634- 174 0.97
  22  0.591  0.569  0.378- 108 0.99
  23  0.718  0.646  0.383- 131 0.99
  24  0.841  0.542  0.420- 137 0.98
  25  0.005  0.604  0.358- 142 0.97
  26  0.828  0.712  0.468- 183 0.99
  27  0.876  0.600  0.721-  62 0.97
  28  0.520  0.986  0.422- 144 0.99
  29  0.223  0.980  0.393- 185 1.00
  30  0.216  0.238  0.319- 200 0.99
  31  0.158  0.330  0.279- 191 0.97
  32  0.342  0.156  0.331- 192 0.98
  33  0.223  0.046  0.323- 199 0.97
  34  0.511  0.826  0.547- 202 0.97
  35  0.406  0.248  0.655-  87 0.97
  36  0.243  0.094  0.599- 138 0.98
  37  0.315  0.487  0.442-  61 0.99
  38  0.409  0.439  0.406- 150 0.98
  39  0.398  0.793  0.389- 188 0.97
  40  0.244  0.655  0.294- 196 0.97
  41  0.312  0.418  0.369- 197 0.98
  42  0.405  0.584  0.339- 198 0.97
  43  0.139  0.488  0.352- 190 0.98
  44  0.593  0.698  0.352-  91 0.97
  45  0.469  0.861  0.444- 201 0.99
  46  0.112  0.329  0.612- 110 0.97
  47  0.071  0.666  0.645- 141 0.97
  48  0.245  0.357  0.676- 186 0.97
  49  0.245  0.817  0.668- 195 0.97
  50  0.527  0.438  0.773-   1 1.09
  51  0.541  0.535  0.755-   1 1.10
  52  0.427  0.474  0.801-   2 1.09
  53  0.367  0.556  0.717-   3 1.09
  54  0.478  0.599  0.811-   4 1.10
  55  0.436  0.635  0.760-   4 1.10
  56  0.403  0.613  0.818-   4 1.10
  57  0.325  0.428  0.700-   5 1.10
  58  0.358  0.394  0.755-   5 1.10
  59  0.302  0.460  0.759-   5 1.10
  60  0.369  0.648  0.439- 233 1.66 268 1.68
  61  0.347  0.504  0.420-  37 0.99 268 1.67
  62  0.861  0.566  0.697-  27 0.97 239 1.64
  63  0.348  0.960  0.532- 244 1.68 277 1.70
  64  0.033  0.932  0.529- 259 1.63 270 1.66
  65  0.636  0.079  0.489- 237 1.60 226 1.65
  66  0.069  0.052  0.395- 225 1.64 217 1.65
  67  0.452  0.130  0.421- 242 1.65 223 1.65
  68  0.806  0.214  0.483- 241 1.67 238 1.69
  69  0.973  0.181  0.599- 219 1.63 249 1.65
  70  0.275  0.299  0.449- 265 1.65 275 1.66
  71  0.556  0.775  0.442- 246 1.51 273 1.66
  72  0.391  0.972  0.621- 263 1.65 277 1.66
  73  0.178  0.350  0.405- 265 1.66 240 1.67
  74  0.866  0.684  0.637- 243 1.64 239 1.65
  75  0.866  0.967  0.467- 235 1.60 250 1.65
  76  0.301  0.761  0.458- 233 1.65 247 1.67
  77  0.422  0.261  0.380- 242 1.67 262 1.67
  78  0.811  0.465  0.520- 269 1.63 216 1.64
  79  0.983  0.072  0.521- 259 1.68 219 1.69
  80  0.509  0.466  0.628- 278 1.65 279 1.99
  81  0.035  0.920  0.429- 270 1.64 217 1.65
  82  0.963  0.303  0.351-   7 0.98 218 1.65
  83  0.070  0.336  0.376- 218 1.64 240 1.65
  84  0.208  0.729  0.395- 247 1.66 257 1.67
  85  0.039  0.419  0.499- 272 1.64 245 1.65
  86  0.236  0.286  0.588- 253 1.63 230 1.63
  87  0.396  0.198  0.645-  35 0.97 224 1.64
  88  0.454  0.565  0.577- 278 1.68 255 1.68
  89  0.910  0.749  0.557- 243 1.64 222 1.65
  90  0.869  0.108  0.442- 250 1.64 238 1.65
  91  0.573  0.667  0.376-  44 0.97 246 1.68
  92  0.142  0.159  0.376- 271 1.65 225 1.65
  93  0.350  0.766  0.607- 215 1.62 256 1.64
  94  0.911  0.845  0.483- 235 1.62 222 1.66
  95  0.061  0.537  0.442- 272 1.66 214 1.67
  96  0.708  0.555  0.420-  20 1.00 228 1.67
  97  0.075  0.817  0.483- 270 1.50 252 1.65
  98  0.700  0.828  0.433- 227 1.53 260 1.65
  99  0.730  0.049  0.543- 226 1.64 261 1.64
 100  0.916  0.300  0.631-  15 0.98 249 1.63
 101  0.735  0.852  0.613- 234 1.66 231 1.68
 102  0.625  0.527  0.486- 236 1.58 228 1.68
 103  0.557  0.630  0.467- 246 1.52 236 1.63
 104  0.426  0.248  0.556- 224 1.68 267 1.68
 105  0.978  0.728  0.477- 252 1.65 222 1.65
 106  0.654  0.594  0.634- 274 1.64 220 1.67
 107  0.397  0.747  0.515- 233 1.66 215 1.66
 108  0.603  0.518  0.386-  22 0.99 228 1.65
 109  0.720  0.630  0.557- 258 1.62 274 1.64
 110  0.137  0.367  0.597-  46 0.97 230 1.64
 111  0.066  0.549  0.542- 272 1.63 276 1.64
 112  0.819  0.884  0.536- 235 1.65 234 1.67
 113  0.828  0.355  0.452- 241 1.65 216 1.65
 114  0.528  0.298  0.532- 267 1.62 248 1.63
 115  0.737  0.499  0.596- 274 1.65 269 1.66
 116  0.557  0.172  0.395- 254 1.59 223 1.64
 117  0.806  0.256  0.383-   8 0.97 241 1.67
 118  0.237  0.953  0.508- 244 1.58 229 1.67
 119  0.692  0.775  0.542- 258 1.63 231 1.64
 120  0.923  0.950  0.553- 259 1.65 235 1.66
 121  0.526  0.318  0.399- 254 1.45 262 1.66
 122  0.467  0.991  0.546- 263 1.69 264 1.70
 123  0.838  0.095  0.540- 238 1.66 261 1.66
 124  0.538  0.116  0.486- 237 1.60 223 1.67
 125  0.350  0.187  0.440- 275 1.63 242 1.65
 126  0.012  0.962  0.335-   9 0.97 217 1.65
 127  0.452  0.585  0.672- 255 1.64 279 2.02
 128  0.655  0.925  0.379-  10 0.98 227 1.66
 129  0.076  0.686  0.436- 214 1.65 252 1.66
 130  0.452  0.405  0.552- 278 1.68 267 1.70
 131  0.719  0.700  0.380-  23 0.99 260 1.65
 132  0.450  0.704  0.601- 215 1.62 255 1.65
 133  0.753  0.709  0.476- 258 1.63 260 1.69
 134  0.779  0.120  0.621-   6 0.97 261 1.64
 135  0.993  0.308  0.448- 245 1.66 218 1.68
 136  0.535  0.507  0.531- 278 1.64 236 1.65
 137  0.817  0.499  0.423-  24 0.98 216 1.69
 138  0.235  0.146  0.605-  36 0.98 253 1.62
 139  0.204  0.831  0.471- 229 1.50 247 1.63
 140  0.240  0.560  0.522- 232 1.65 221 1.66
 141  0.061  0.625  0.624-  47 0.97 276 1.64
 142  0.046  0.602  0.354-  25 0.97 214 1.65
 143  0.800  0.978  0.605- 234 1.66 261 1.68
 144  0.538  0.028  0.405-  28 0.99 223 1.66
 145  0.606  0.313  0.605-  16 0.97 248 1.64
 146  0.862  0.004  0.369-  11 0.97 250 1.66
 147  0.095  0.149  0.467- 251 1.61 225 1.65
 148  0.171  0.202  0.530- 251 1.61 253 1.63
 149  0.641  0.704  0.455- 246 1.65 260 1.66
 150  0.437  0.410  0.386-  38 0.98 262 1.66
 151  0.574  0.058  0.571- 264 1.62 237 1.65
 152  0.151  0.593  0.389- 257 1.68 214 1.68
 153  0.268  0.602  0.392- 268 1.65 257 1.67
 154  0.440  0.322  0.470- 267 1.64 262 1.69
 155  0.238  0.159  0.430- 271 1.65 275 1.67
 156  0.073  0.150  0.563- 219 1.64 251 1.64
 157  0.845  0.544  0.600- 239 1.66 269 1.66
 158  0.621  0.280  0.411- 266 1.65 254 1.66
 159  0.603  0.892  0.467- 273 1.29 227 1.67
 160  0.031  0.195  0.389- 218 1.66 225 1.66
 161  0.608  0.195  0.548- 237 1.62 248 1.64
 162  0.133  0.938  0.479- 270 1.65 229 1.66
 163  0.080  0.279  0.511- 245 1.63 251 1.64
 164  0.371  0.106  0.573- 277 1.63 224 1.68
 165  0.067  0.697  0.536- 252 1.63 276 1.63
 166  0.666  0.415  0.430- 228 1.65 266 1.65
 167  0.799  0.729  0.564- 258 1.61 243 1.63
 168  0.704  0.957  0.470- 226 1.65 227 1.66
 169  0.597  0.634  0.553- 236 1.62 220 1.63
 170  0.723  0.294  0.452- 241 1.63 266 1.64
 171  0.978  0.314  0.547- 245 1.64 249 1.67
 172  0.158  0.630  0.571- 232 1.63 276 1.65
 173  0.633  0.327  0.508- 248 1.63 266 1.65
 174  0.820  0.396  0.606-  21 0.97 269 1.66
 175  0.959  0.027  0.417- 250 1.64 217 1.65
 176  0.282  0.196  0.519- 275 1.63 253 1.65
 177  0.249  0.443  0.461- 221 1.66 265 1.71
 178  0.272  0.850  0.569- 244 1.64 256 1.65
 179  0.204  0.686  0.487- 232 1.63 247 1.66
 180  0.147  0.476  0.493- 221 1.63 272 1.65
 181  0.226  0.427  0.558- 221 1.62 230 1.63
 182  0.911  0.453  0.474-  19 0.98 216 1.65
 183  0.870  0.705  0.464-  26 0.99 222 1.65
 184  0.738  0.093  0.445-  12 0.98 226 1.66
 185  0.222  0.930  0.408-  29 1.00 229 1.64
 186  0.232  0.395  0.653-  48 0.97 230 1.65
 187  0.630  0.883  0.594-  17 0.99 231 1.62
 188  0.410  0.789  0.423-  39 0.97 233 1.68
 189  0.918  0.196  0.508-  13 0.97 238 1.65
 190  0.133  0.444  0.332-  43 0.98 240 1.65
 191  0.155  0.304  0.311-  31 0.97 240 1.69
 192  0.373  0.131  0.348-  32 0.98 242 1.66
 193  0.031  0.294  0.636-  18 0.97 249 1.67
 194  0.573  0.257  0.320-  14 0.97 254 1.66
 195  0.245  0.771  0.650-  49 0.97 256 1.64
 196  0.207  0.648  0.310-  40 0.97 257 1.65
 197  0.275  0.392  0.367-  41 0.98 265 1.66
 198  0.365  0.598  0.342-  42 0.97 268 1.67
 199  0.226  0.056  0.358-  33 0.97 271 1.69
 200  0.241  0.196  0.329-  30 0.99 271 1.66
 201  0.501  0.892  0.455-  45 0.99 273 1.60
 202  0.550  0.828  0.534-  34 0.97 273 1.67
 203  0.544  0.645  0.635- 220 1.65 255 1.68
 204  0.478  0.123  0.596- 264 1.65 224 1.66
 205  0.262  0.695  0.569- 256 1.65 232 1.65
 206  0.442  0.847  0.582- 263 1.65 215 1.69
 207  0.765  0.617  0.649- 274 1.65 239 1.66
 208  0.845  0.832  0.623- 243 1.66 234 1.68
 209  0.639  0.739  0.621- 220 1.67 231 1.71
 210  0.008  0.033  0.603- 259 1.69 219 1.69
 211  0.283  0.002  0.595- 277 1.69 244 1.70
 212  0.503  0.972  0.629- 263 1.69 264 1.70
 213  0.442  0.388  0.694- 279 1.74
 214  0.083  0.606  0.406- 142 1.65 129 1.65  95 1.67 152 1.68 272 3.13
 215  0.409  0.765  0.575- 132 1.62  93 1.62 107 1.66 206 1.69 256 3.06
 216  0.842  0.441  0.468-  78 1.64 113 1.65 182 1.65 137 1.69
 217  0.017  0.990  0.394-  66 1.65 175 1.65  81 1.65 126 1.65 270 3.11 225 3.13
 218  0.015  0.284  0.391-  83 1.64  82 1.65 160 1.66 135 1.68 245 3.11 225 3.11
 219  0.009  0.115  0.572-  69 1.63 156 1.64  79 1.69 210 1.69 259 2.39 251 3.04 249 3.08
 220  0.608  0.657  0.611- 169 1.63 203 1.65 106 1.67 209 1.67 274 2.89
 221  0.214  0.477  0.510- 181 1.62 180 1.63 140 1.66 177 1.66 232 3.09 265 3.14
 222  0.915  0.756  0.496- 105 1.65 183 1.65  89 1.65  94 1.66 235 2.99 243 3.03
 223  0.521  0.110  0.426- 116 1.64  67 1.65 144 1.66 124 1.67 254 3.08 237 3.12
 224  0.418  0.171  0.590-  87 1.64 204 1.66 104 1.68 164 1.68 264 3.15
 225  0.083  0.139  0.407-  66 1.64 147 1.65  92 1.65 160 1.66 218 3.11 217 3.13 271 3.14
 226  0.702  0.045  0.487-  99 1.64 168 1.65  65 1.65 184 1.66 237 3.09 227 3.10 261 3.15
 227  0.665  0.898  0.437-  98 1.53 168 1.66 128 1.66 159 1.67 273 2.83 260 3.06 226 3.10
 228  0.650  0.504  0.430- 108 1.65 166 1.65  96 1.67 102 1.68 236 3.07
 229  0.198  0.912  0.464- 139 1.50 185 1.64 162 1.66 118 1.67 247 3.01 244 3.07 270 3.07
 230  0.207  0.366  0.600-  86 1.63 181 1.63 110 1.64 186 1.65 253 3.14
 231  0.673  0.812  0.595- 187 1.62 119 1.64 101 1.68 209 1.71 258 2.90
 232  0.217  0.642  0.539- 179 1.63 172 1.63 205 1.65 140 1.65 247 3.09 221 3.09 276 3.12
 233  0.369  0.735  0.459-  76 1.65 107 1.66  60 1.66 188 1.68
 234  0.797  0.888  0.595- 143 1.66 101 1.66 112 1.67 208 1.68 243 2.85 235 3.00
 235  0.880  0.912  0.512-  75 1.60  94 1.62 112 1.65 120 1.66 222 2.99 234 3.00 259 3.05 250 3.14

 236  0.576  0.574  0.512- 102 1.58 169 1.62 103 1.63 136 1.65 246 3.01 228 3.07 278 3.14
 237  0.590  0.115  0.525-  65 1.60 124 1.60 161 1.62 151 1.65 264 2.85 226 3.09 248 3.12 223 3.12

 238  0.858  0.152  0.495- 189 1.65  90 1.65 123 1.66  68 1.69 250 3.07 241 3.15
 239  0.835  0.604  0.646-  62 1.64  74 1.65 157 1.66 207 1.66 274 2.93 243 3.00 269 3.00
 240  0.134  0.360  0.357- 190 1.65  83 1.65  73 1.67 191 1.69 265 3.11
 241  0.791  0.280  0.442- 170 1.63 113 1.65 117 1.67  68 1.67 238 3.15
 242  0.399  0.177  0.396-  67 1.65 125 1.65 192 1.66  77 1.67 262 3.07
 243  0.856  0.750  0.596- 167 1.63  89 1.64  74 1.64 208 1.66 234 2.85 239 3.00 222 3.03
 244  0.282  0.935  0.550- 118 1.58 178 1.64  63 1.68 211 1.70 277 2.38 229 3.07
 245  0.023  0.330  0.502- 163 1.63 171 1.64  85 1.65 135 1.66 218 3.11 249 3.12 251 3.13
 246  0.575  0.695  0.436-  71 1.51 103 1.52 149 1.65  91 1.68 236 3.01 273 3.06 260 3.10
 247  0.230  0.753  0.452- 139 1.63 179 1.66  84 1.66  76 1.67 257 2.97 229 3.01 232 3.09
 248  0.594  0.284  0.548- 173 1.63 114 1.63 161 1.64 145 1.64 237 3.12
 249  0.974  0.272  0.602- 100 1.63  69 1.65 193 1.67 171 1.67 219 3.08 245 3.12
 250  0.889  0.025  0.424-  90 1.64 175 1.64  75 1.65 146 1.66 238 3.07 235 3.14
 251  0.104  0.195  0.518- 148 1.61 147 1.61 156 1.64 163 1.64 219 3.04 245 3.13
 252  0.048  0.733  0.483- 165 1.63 105 1.65  97 1.65 129 1.66 270 3.05 276 3.15
 253  0.231  0.206  0.561- 138 1.62 148 1.63  86 1.63 176 1.65 275 3.03 230 3.14
 254  0.561  0.258  0.381- 121 1.45 116 1.59 158 1.66 194 1.66 262 2.87 223 3.08
 255  0.476  0.625  0.621- 127 1.64 132 1.65 203 1.68  88 1.68 278 2.92 279 3.26
 256  0.281  0.771  0.598-  93 1.64 195 1.64 205 1.65 178 1.65 215 3.06
 257  0.209  0.643  0.372- 196 1.65 153 1.67  84 1.67 152 1.68 247 2.97
 258  0.740  0.710  0.536- 167 1.61 109 1.62 133 1.63 119 1.63 231 2.90 260 2.91 274 3.06
 259  0.986  0.990  0.550-  64 1.63 120 1.65  79 1.68 210 1.69 219 2.39 235 3.05
 260  0.703  0.737  0.434-  98 1.65 131 1.65 149 1.66 133 1.69 258 2.91 227 3.06 246 3.10
 261  0.788  0.059  0.577-  99 1.64 134 1.64 123 1.66 143 1.68 226 3.15
 262  0.456  0.328  0.409- 150 1.66 121 1.66  77 1.67 154 1.69 254 2.87 242 3.07
 263  0.449  0.936  0.595-  72 1.65 206 1.65 122 1.69 212 1.69 264 2.37 277 2.74
 264  0.508  0.041  0.586- 151 1.62 204 1.65 122 1.70 212 1.70 263 2.37 237 2.85 224 3.15
 265  0.244  0.370  0.421-  70 1.65  73 1.66 197 1.66 177 1.71 240 3.11 221 3.14
 266  0.659  0.330  0.450- 170 1.64 158 1.65 166 1.65 173 1.65
 267  0.460  0.319  0.529- 114 1.62 154 1.64 104 1.68 130 1.70
 268  0.337  0.590  0.399- 153 1.65 198 1.67  61 1.67  60 1.68
 269  0.803  0.477  0.580-  78 1.63 174 1.66 157 1.66 115 1.66 274 2.91 239 3.00
 270  0.069  0.899  0.481-  97 1.50  81 1.64 162 1.65  64 1.66 252 3.05 229 3.07 217 3.11
 271  0.212  0.144  0.374-  92 1.65 155 1.65 200 1.66 199 1.69 275 3.12 225 3.14
 272  0.078  0.494  0.495- 111 1.63  85 1.64 180 1.65  95 1.66 276 3.09 214 3.13
 273  0.558  0.852  0.475- 159 1.29 201 1.60  71 1.66 202 1.67 227 2.83 246 3.06
 274  0.718  0.585  0.610- 106 1.64 109 1.64 207 1.65 115 1.65 220 2.89 269 2.91 239 2.93 258 3.06

 275  0.287  0.210  0.459- 176 1.63 125 1.63  70 1.66 155 1.67 253 3.03 271 3.12
 276  0.088  0.625  0.568- 165 1.63 141 1.64 111 1.64 172 1.65 272 3.09 232 3.12 252 3.15
 277  0.353  0.020  0.580- 164 1.63  72 1.66 211 1.69  63 1.70 244 2.38 263 2.74
 278  0.486  0.482  0.571- 136 1.64  80 1.65  88 1.68 130 1.68 255 2.92 236 3.14 279 3.27
 279  0.465  0.479  0.692- 213 1.74   1 1.93  80 1.99 127 2.02   3 2.35   2 2.55 255 3.26 278 3.27


  LATTYP: Found a simple orthorhombic cell.
 ALAT       =    18.1212369514
 B/A-ratio  =     1.2919258579
 C/A-ratio  =     1.4835282260
  
  Lattice vectors:
  
 A1 = (   0.0000000000, -18.1212369514,   0.0000000000)
 A2 = ( -23.4112945954,   0.0000000000,   0.0000000000)
 A3 = (   0.0000000000,   0.0000000000, -26.8833665073)


Analysis of symmetry for initial positions (statically):
=====================================================================
 Subroutine PRICEL returns:
 Original cell was already a primitive cell.
 

 Routine SETGRP: Setting up the symmetry group for a 
 simple orthorhombic supercell.


 Subroutine GETGRP returns: Found  1 space group operations
 (whereof  1 operations were pure point group operations)
 out of a pool of  8 trial point group operations.


The static configuration has the point symmetry C_1 .


Analysis of symmetry for dynamics (positions and initial velocities):
=====================================================================
 Subroutine PRICEL returns:
 Original cell was already a primitive cell.
 

 Routine SETGRP: Setting up the symmetry group for a 
 simple orthorhombic supercell.


 Subroutine GETGRP returns: Found  1 space group operations
 (whereof  1 operations were pure point group operations)
 out of a pool of  8 trial point group operations.


The dynamic configuration has the point symmetry C_1 .


Analysis of constrained symmetry for selective dynamics:
=====================================================================
 Subroutine PRICEL returns:
 Original cell was already a primitive cell.
 

 Routine SETGRP: Setting up the symmetry group for a 
 simple orthorhombic supercell.


 Subroutine GETGRP returns: Found  1 space group operations
 (whereof  1 operations were pure point group operations)
 out of a pool of  8 trial point group operations.


The constrained configuration has the point symmetry C_1 .


 Subroutine INISYM returns: Found  1 space group operations
 (whereof  1 operations are pure point group operations),
 and found     1 'primitive' translations



 KPOINTS: KPOINTS created by Atomic Simulation Env

Automatic generation of k-mesh.
Space group operators:
 irot       det(A)        alpha          n_x          n_y          n_z        tau_x        tau_y        tau_z
    1     1.000000     0.000000     1.000000     0.000000     0.000000     0.000000     0.000000     0.000000
 
 Subroutine IBZKPT returns following result:
 ===========================================
 
 Found      5 irreducible k-points:
 
 Following reciprocal coordinates:
            Coordinates               Weight
  0.000000  0.000000  0.000000      1.000000
  0.333333  0.000000  0.000000      2.000000
  0.000000  0.333333  0.000000      2.000000
  0.333333  0.333333  0.000000      2.000000
 -0.333333  0.333333  0.000000      2.000000
 
 Following cartesian coordinates:
            Coordinates               Weight
  0.000000  0.000000  0.000000      1.000000
  0.014238  0.000000  0.000000      2.000000
  0.000000  0.018395  0.000000      2.000000
  0.014238  0.018395  0.000000      2.000000
 -0.014238  0.018395  0.000000      2.000000
 


--------------------------------------------------------------------------------------------------------




 Dimension of arrays:
   k-points           NKPTS =      5   k-points in BZ     NKDIM =      5   number of bands    NBANDS=    772
   number of dos      NEDOS =    301   number of ions     NIONS =    279
   non local maximal  LDIM  =      6   non local SUM 2l+1 LMDIM =     18
   total plane-waves  NPLWV = ******
   max r-space proj   IRMAX =   2748   max aug-charges    IRDMAX=   9808
   dimension x,y,z NGX =   128 NGY =  100 NGZ =  150
   dimension x,y,z NGXF=   256 NGYF=  200 NGZF=  300
   support grid    NGXF=   256 NGYF=  200 NGZF=  300
   ions per type =               5  54 154  65   1
   NGX,Y,Z   is equivalent  to a cutoff of   9.09,  9.17,  9.28 a.u.
   NGXF,Y,Z  is equivalent  to a cutoff of  18.18, 18.35, 18.55 a.u.

 SYSTEM =  unknown system                          
 POSCAR =   C  H  O Si  W                          

 Startparameter for this run:
   NWRITE =      2    write-flag & timer
   PREC   = normal    normal or accurate (medium, high low for compatibility)
   ISTART =      0    job   : 0-new  1-cont  2-samecut
   ICHARG =      2    charge: 1-file 2-atom 10-const
   ISPIN  =      1    spin polarized calculation?
   LNONCOLLINEAR =      F non collinear calculations
   LSORBIT =      F    spin-orbit coupling
   INIWAV =      1    electr: 0-lowe 1-rand  2-diag
   LASPH  =      T    aspherical Exc in radial PAW
   METAGGA=      F    non-selfconsistent MetaGGA calc.

 Electronic Relaxation 1
   ENCUT  =  500.0 eV  36.75 Ry    6.06 a.u.  42.68 33.04 49.01*2*pi/ulx,y,z
   ENINI  =  500.0     initial cutoff
   ENAUG  =  644.9 eV  augmentation charge cutoff
   NELM   =     60;   NELMIN=  2; NELMDL=  0     # of ELM steps 
   EDIFF  = 0.1E-03   stopping-criterion for ELM
   LREAL  =      T    real-space projection
   NLSPLINE    = F    spline interpolate recip. space projectors
   LCOMPAT=      F    compatible to vasp.4.4
   GGA_COMPAT  = T    GGA compatible to vasp.4.4-vasp.4.6
   LMAXPAW     = -100 max onsite density
   LMAXMIX     =    2 max onsite mixed and CHGCAR
   VOSKOWN=      0    Vosko Wilk Nusair interpolation
   ROPT   =   -0.00050  -0.00050  -0.00050  -0.00050
   ROPT   =   -0.00050
 Ionic relaxation
   EDIFFG = -.5E-01   stopping-criterion for IOM
   NSW    =    500    number of steps for IOM
   NBLOCK =      1;   KBLOCK =    500    inner block; outer block 
   IBRION =      3    ionic relax: 0-MD 1-quasi-New 2-CG
   NFREE  =      0    steps in history (QN), initial steepest desc. (CG)
   ISIF   =      0    stress and relaxation
   IWAVPR =     11    prediction:  0-non 1-charg 2-wave 3-comb
   ISYM   =      2    0-nonsym 1-usesym 2-fastsym
   LCORR  =      T    Harris-Foulkes like correction to forces

   POTIM  = 0.0000    time-step for ionic-motion
   TEIN   =    0.0    initial temperature
   TEBEG  =    0.0;   TEEND  =   0.0 temperature during run
   SMASS  =  -3.00    Nose mass-parameter (am)
   estimated Nose-frequenzy (Omega)   =  0.10E-29 period in steps =  0.00 mass=  -0.125E-25a.u.
   SCALEE = 1.0000    scale energy and forces
   NPACO  =    256;   APACO  = 16.0  distance and # of slots for P.C.
   PSTRESS=    0.0 pullay stress

  Mass of Ions in am
   POMASS =  12.01  1.00 16.00 28.09183.85
  Ionic Valenz
   ZVAL   =   4.00  1.00  6.00  4.00  6.00
  Atomic Wigner-Seitz radii
   RWIGS  =  -1.00 -1.00 -1.00 -1.00 -1.00
  virtual crystal weights 
   VCA    =   1.00  1.00  1.00  1.00  1.00
   NELECT =    1264.0000    total number of electrons
   NUPDOWN=      -1.0000    fix difference up-down

 DOS related values:
   EMIN   =  10.00;   EMAX   =-10.00  energy-range for DOS
   EFERMI =   0.00
   ISMEAR =     0;   SIGMA  =   0.20  broadening in eV -4-tet -1-fermi 0-gaus

 Electronic relaxation 2 (details)
   IALGO  =     68    algorithm
   LDIAG  =      T    sub-space diagonalisation (order eigenvalues)
   LSUBROT=      F    optimize rotation matrix (better conditioning)
   TURBO    =      0    0=normal 1=particle mesh
   IRESTART =      0    0=no restart 2=restart with 2 vectors
   NREBOOT  =      0    no. of reboots
   NMIN     =      0    reboot dimension
   EREF     =   0.00    reference energy to select bands
   IMIX   =      4    mixing-type and parameters
     AMIX     =   0.40;   BMIX     =  1.00
     AMIX_MAG =   1.60;   BMIX_MAG =  1.00
     AMIN     =   0.10
     WC   =   100.;   INIMIX=   1;  MIXPRE=   1;  MAXMIX= -45

 Intra band minimization:
   WEIMIN = 0.0010     energy-eigenvalue tresh-hold
   EBREAK =  0.32E-07  absolut break condition
   DEPER  =   0.30     relativ break condition  

   TIME   =   0.40     timestep for ELM

  volume/ion in A,a.u.               =      40.88       275.86
  Fermi-wavevector in a.u.,A,eV,Ry     =   0.786366  1.486017  8.413461  0.618372
  Thomas-Fermi vector in A             =   1.890890

 Write flags
   LWAVE        =      F    write WAVECAR
   LDOWNSAMPLE  =      F    k-point downsampling of WAVECAR
   LCHARG       =      F    write CHGCAR
   LVTOT        =      F    write LOCPOT, total local potential
   LVHAR        =      F    write LOCPOT, Hartree potential only
   LELF         =      F    write electronic localiz. function (ELF)
   LORBIT       =      0    0 simple, 1 ext, 2 COOP (PROOUT), +10 PAW based schemes


 Dipole corrections
   LMONO  =      F    monopole corrections only (constant potential shift)
   LDIPOL =      T    correct potential (dipole corrections)
   IDIPOL =      3    1-x, 2-y, 3-z, 4-all directions 
   EPSILON=  1.0000000 bulk dielectric constant

 Exchange correlation treatment:
   GGA     =    RP    GGA type
   LEXCH   =     9    internal setting for exchange type
   VOSKOWN=      0    Vosko Wilk Nusair interpolation
   LHFCALC =     F    Hartree Fock is set to
   LHFONE  =     F    Hartree Fock one center treatment
   AEXX    =    0.0000 exact exchange contribution

 Linear response parameters
   LEPSILON=     F    determine dielectric tensor
   LRPA    =     F    only Hartree local field effects (RPA)
   LNABLA  =     F    use nabla operator in PAW spheres
   LVEL    =     F    velocity operator in full k-point grid
   LINTERFAST=   F  fast interpolation
   KINTER  =     0    interpolate to denser k-point grid
   CSHIFT  =0.1000    complex shift for real part using Kramers Kronig
   OMEGAMAX=  -1.0    maximum frequency
   DEG_THRESHOLD= 0.2000000E-02 threshold for treating states as degnerate
   RTIME   =   -0.100 relaxation time in fs
  (WPLASMAI=    0.000 imaginary part of plasma frequency in eV, 0.658/RTIME)
   DFIELD  = 0.0000000 0.0000000 0.0000000 field for delta impulse in time

 Orbital magnetization related:
   ORBITALMAG=     F  switch on orbital magnetization
   LCHIMAG   =     F  perturbation theory with respect to B field
   DQ        =  0.001000  dq finite difference perturbation B field
   LLRAUG    =     F  two centre corrections for induced B field



--------------------------------------------------------------------------------------------------------


 quickmin algorithm: (dynamic with friction)
   using selective dynamics as specified on POSCAR
 charge density and potential will be updated during run
 non-spin polarized calculation
 RMM-DIIS sequential band-by-band and
  variant of blocked Davidson during initial phase
 perform sub-space diagonalisation
    before iterative eigenvector-optimisation
 modified Broyden-mixing scheme, WC =      100.0
 initial mixing is a Kerker type mixing with AMIX =  0.4000 and BMIX =      1.0000
 Hartree-type preconditioning will be used
 using additional bands          140
 real space projection scheme for non local part
 use partial core corrections
 calculate Harris-corrections to forces   (improved forces if not selfconsistent)
 use gradient corrections 
 use of overlap-Matrix (Vanderbilt PP)
 Gauss-broadening in eV      SIGMA  =   0.20


--------------------------------------------------------------------------------------------------------


  energy-cutoff  :      500.00
  volume of cell :    11405.04
      direct lattice vectors                 reciprocal lattice vectors
    23.411294595  0.000000000  0.000000000     0.042714426  0.000000000  0.000000000
     0.000000000 18.121236951  0.000000000     0.000000000  0.055183871  0.000000000
     0.000000000  0.000000000 26.883366507     0.000000000  0.000000000  0.037197722

  length of vectors
    23.411294595 18.121236951 26.883366507     0.042714426  0.055183871  0.037197722



 k-points in units of 2pi/SCALE and weight: KPOINTS created by Atomic Simulation Env
   0.00000000  0.00000000  0.00000000       0.111
   0.01423814  0.00000000  0.00000000       0.222
   0.00000000  0.01839462  0.00000000       0.222
   0.01423814  0.01839462  0.00000000       0.222
  -0.01423814  0.01839462  0.00000000       0.222

 k-points in reciprocal lattice and weights: KPOINTS created by Atomic Simulation Env
   0.00000000  0.00000000  0.00000000       0.111
   0.33333333  0.00000000  0.00000000       0.222
   0.00000000  0.33333333  0.00000000       0.222
   0.33333333  0.33333333  0.00000000       0.222
  -0.33333333  0.33333333  0.00000000       0.222

 position of ions in fractional coordinates (direct lattice) 
   0.51713914  0.48328790  0.74770923
   0.42173265  0.51894451  0.77404900
   0.38161262  0.50670659  0.73556624
   0.43634885  0.59605780  0.79154053
   0.33952378  0.44280245  0.73733207
   0.76090359  0.10266724  0.65111890
   0.92642768  0.27866896  0.35633493
   0.79333970  0.20727890  0.37345652
   0.97453911  0.94360860  0.32530279
   0.62573266  0.96347285  0.37523120
   0.82053840  0.99500666  0.36899263
   0.74999307  0.14117876  0.45803819
   0.91584955  0.24947792  0.50721182
   0.58349286  0.30426355  0.30592717
   0.88946564  0.33399855  0.61507098
   0.58956892  0.36021947  0.61415440
   0.59329908  0.87075211  0.57821410
   0.02490017  0.33578494  0.65755038
   0.93527051  0.41951423  0.45410146
   0.74613838  0.53031199  0.42248819
   0.79719029  0.38218058  0.63443973
   0.59110202  0.56868283  0.37803474
   0.71843379  0.64593279  0.38346059
   0.84115291  0.54242660  0.41959617
   0.00476455  0.60379815  0.35777830
   0.82835870  0.71235667  0.46794226
   0.87619792  0.59952277  0.72148388
   0.51999031  0.98556476  0.42170307
   0.22309457  0.98015484  0.39320502
   0.21637369  0.23785146  0.31923033
   0.15750105  0.32980623  0.27898292
   0.34154688  0.15558571  0.33077276
   0.22271586  0.04575893  0.32273843
   0.51104945  0.82608429  0.54672032
   0.40612023  0.24795528  0.65530617
   0.24343802  0.09380081  0.59895467
   0.31538097  0.48713646  0.44243467
   0.40895618  0.43873486  0.40569060
   0.39849950  0.79311361  0.38878680
   0.24420236  0.65543008  0.29432688
   0.31174138  0.41847571  0.36925764
   0.40547429  0.58427965  0.33881989
   0.13935762  0.48797365  0.35192946
   0.59326935  0.69798713  0.35239799
   0.46900683  0.86142747  0.44382838
   0.11243519  0.32925956  0.61236122
   0.07134555  0.66648764  0.64508199
   0.24495823  0.35658652  0.67560226
   0.24512102  0.81725440  0.66840876
   0.52703955  0.43773306  0.77294580
   0.54059522  0.53472131  0.75474722
   0.42731688  0.47445089  0.80109900
   0.36655125  0.55642173  0.71653256
   0.47775343  0.59914285  0.81055611
   0.43564376  0.63513071  0.76035724
   0.40300852  0.61274137  0.81835803
   0.32501582  0.42764624  0.69990254
   0.35841481  0.39407719  0.75515585
   0.30166400  0.46025005  0.75880537
   0.36894173  0.64835510  0.43900002
   0.34681565  0.50403387  0.42038813
   0.86066408  0.56631990  0.69669891
   0.34820512  0.96036381  0.53180754
   0.03318058  0.93212328  0.52857631
   0.63635548  0.07886855  0.48937667
   0.06864615  0.05226542  0.39511073
   0.45189954  0.12956232  0.42059728
   0.80588415  0.21365018  0.48316661
   0.97319386  0.18113112  0.59878684
   0.27476529  0.29917287  0.44851223
   0.55635417  0.77509129  0.44175101
   0.39128413  0.97197870  0.62086490
   0.17751724  0.34996845  0.40527312
   0.86634487  0.68417723  0.63737409
   0.86569601  0.96717693  0.46703846
   0.30104714  0.76093683  0.45792526
   0.42161095  0.26125222  0.37959630
   0.81115978  0.46544264  0.52014319
   0.98343831  0.07238328  0.52114157
   0.50858980  0.46625355  0.62825953
   0.03453641  0.91994776  0.42940526
   0.96303654  0.30319531  0.35125762
   0.06962669  0.33610577  0.37637178
   0.20829566  0.72864429  0.39536010
   0.03890126  0.41910192  0.49910875
   0.23626912  0.28646210  0.58765711
   0.39584920  0.19818367  0.64523905
   0.45383255  0.56466773  0.57703946
   0.90973405  0.74903606  0.55747183
   0.86912727  0.10804334  0.44227833
   0.57257679  0.66733185  0.37613173
   0.14242656  0.15912550  0.37597224
   0.35033349  0.76601794  0.60675039
   0.91099605  0.84504757  0.48317962
   0.06133801  0.53687171  0.44225348
   0.70833903  0.55516655  0.41995768
   0.07548726  0.81680680  0.48299416
   0.70046477  0.82755571  0.43263529
   0.73028683  0.04924934  0.54295480
   0.91611385  0.29968619  0.63070455
   0.73469740  0.85166028  0.61306488
   0.62512195  0.52739400  0.48637871
   0.55657330  0.62970304  0.46724942
   0.42643019  0.24770314  0.55626409
   0.97829009  0.72824363  0.47679564
   0.65378535  0.59410052  0.63351007
   0.39666300  0.74665931  0.51537372
   0.60269007  0.51766545  0.38567099
   0.71985401  0.63041606  0.55693587
   0.13673768  0.36682393  0.59745395
   0.06614130  0.54860996  0.54190959
   0.81870655  0.88400562  0.53647750
   0.82821553  0.35538514  0.45190334
   0.52753967  0.29844606  0.53192124
   0.73675188  0.49902996  0.59574665
   0.55743394  0.17243111  0.39490854
   0.80596408  0.25641257  0.38329286
   0.23744622  0.95325075  0.50791956
   0.69235058  0.77513242  0.54175518
   0.92344436  0.94967699  0.55307406
   0.52573722  0.31778112  0.39855594
   0.46664707  0.99111098  0.54648666
   0.83786789  0.09479685  0.53983352
   0.53790325  0.11641749  0.48623709
   0.35019344  0.18660873  0.43963639
   0.01176032  0.96241390  0.33524376
   0.45228021  0.58548505  0.67206399
   0.65496522  0.92539750  0.37922825
   0.07629334  0.68602626  0.43588102
   0.45234158  0.40499910  0.55220411
   0.71921944  0.70042085  0.37958300
   0.45034716  0.70417006  0.60080591
   0.75255106  0.70932458  0.47629548
   0.77935328  0.12021513  0.62109935
   0.99327462  0.30801347  0.44840298
   0.53483277  0.50669428  0.53127658
   0.81677759  0.49906173  0.42344221
   0.23529332  0.14578911  0.60549379
   0.20353331  0.83070132  0.47053363
   0.24012248  0.55970030  0.52215529
   0.06115160  0.62546585  0.62375139
   0.04607407  0.60234669  0.35417863
   0.80040949  0.97802955  0.60537250
   0.53799091  0.02769749  0.40450275
   0.60556131  0.31259733  0.60507967
   0.86154611  0.00408085  0.36920633
   0.09491131  0.14902284  0.46708233
   0.17137920  0.20237364  0.53009206
   0.64098865  0.70443872  0.45481558
   0.43678778  0.40976848  0.38641325
   0.57358788  0.05812654  0.57086972
   0.15143775  0.59340802  0.38895836
   0.26773979  0.60233753  0.39230630
   0.44025846  0.32219818  0.47032443
   0.23800967  0.15851113  0.42990119
   0.07271960  0.14994035  0.56262828
   0.84485537  0.54426997  0.59976953
   0.62117943  0.27993988  0.41090545
   0.60266699  0.89152667  0.46722346
   0.03138539  0.19528983  0.38899188
   0.60764795  0.19529762  0.54759910
   0.13279973  0.93835464  0.47948708
   0.07961703  0.27946539  0.51094204
   0.37109515  0.10588086  0.57275244
   0.06666730  0.69706763  0.53575106
   0.66648838  0.41538488  0.43001156
   0.79925639  0.72936231  0.56411054
   0.70383856  0.95720843  0.47018456
   0.59744922  0.63369850  0.55332976
   0.72284030  0.29368465  0.45166811
   0.97767869  0.31415304  0.54739333
   0.15828855  0.62972359  0.57066340
   0.63333384  0.32678308  0.50780070
   0.81953942  0.39641632  0.60559906
   0.95857820  0.02724304  0.41695300
   0.28205151  0.19576083  0.51880644
   0.24925755  0.44303289  0.46105570
   0.27198512  0.85037511  0.56897565
   0.20366815  0.68557317  0.48688872
   0.14712345  0.47606988  0.49254493
   0.22643627  0.42665427  0.55804188
   0.91141698  0.45274460  0.47371881
   0.86978818  0.70456011  0.46415352
   0.73812021  0.09283462  0.44522965
   0.22218344  0.92978119  0.40794682
   0.23216713  0.39545619  0.65348340
   0.63045472  0.88268551  0.59354564
   0.41022327  0.78906239  0.42343739
   0.91777135  0.19603829  0.50824515
   0.13254706  0.44353611  0.33227266
   0.15514768  0.30352326  0.31056042
   0.37300515  0.13090704  0.34795342
   0.03118507  0.29372391  0.63583356
   0.57268926  0.25686819  0.32009968
   0.24534280  0.77114770  0.65009106
   0.20737430  0.64840505  0.31036906
   0.27537441  0.39219130  0.36737583
   0.36535081  0.59758663  0.34222079
   0.22638085  0.05618082  0.35811888
   0.24120333  0.19607823  0.32934297
   0.50127293  0.89230162  0.45484168
   0.55002183  0.82791317  0.53434348
   0.54361939  0.64531926  0.63453358
   0.47848467  0.12288437  0.59581427
   0.26220158  0.69474910  0.56872203
   0.44247709  0.84734441  0.58156261
   0.76524910  0.61697804  0.64947283
   0.84465806  0.83159016  0.62288621
   0.63856093  0.73896489  0.62127614
   0.00786949  0.03309157  0.60293910
   0.28344869  0.00195726  0.59501369
   0.50291493  0.97223642  0.62851351
   0.44157764  0.38837829  0.69424789
   0.08322528  0.60642030  0.40641308
   0.40923846  0.76522420  0.57482248
   0.84176382  0.44145312  0.46783897
   0.01708949  0.99048204  0.39361135
   0.01470021  0.28419027  0.39108141
   0.00922667  0.11466670  0.57237809
   0.60806967  0.65670542  0.61130989
   0.21405608  0.47680537  0.50953635
   0.91506213  0.75556094  0.49625454
   0.52057854  0.11045563  0.42598659
   0.41838147  0.17084469  0.59049332
   0.08345253  0.13917208  0.40698087
   0.70189793  0.04484625  0.48732303
   0.66505935  0.89803746  0.43747644
   0.65009874  0.50402706  0.43015089
   0.19846065  0.91248223  0.46399069
   0.20659620  0.36612876  0.59969198
   0.67296907  0.81236609  0.59487691
   0.21656462  0.64194486  0.53853937
   0.36878912  0.73512773  0.45920930
   0.79689862  0.88774381  0.59546747
   0.87955841  0.91209951  0.51195905
   0.57629045  0.57434643  0.51195053
   0.58976694  0.11533731  0.52525448
   0.85812234  0.15211323  0.49517595
   0.83517275  0.60375753  0.64582304
   0.13373852  0.36031890  0.35687228
   0.79065529  0.27993925  0.44187265
   0.39917610  0.17749484  0.39600320
   0.85588719  0.74998492  0.59644745
   0.28244925  0.93547081  0.55021924
   0.02307473  0.33044751  0.50224551
   0.57455938  0.69549008  0.43556436
   0.23024095  0.75260050  0.45196954
   0.59362840  0.28388294  0.54812500
   0.97370473  0.27186430  0.60240902
   0.88890636  0.02540900  0.42420019
   0.10447480  0.19527743  0.51768955
   0.04814566  0.73303709  0.48263019
   0.23130447  0.20585767  0.56081119
   0.56140781  0.25778527  0.38122611
   0.47551570  0.62471534  0.62089288
   0.28125856  0.77092125  0.59771336
   0.20850083  0.64339984  0.37179454
   0.74028319  0.71017997  0.53584879
   0.98625955  0.99026595  0.55031702
   0.70310456  0.73681815  0.43426040
   0.78806817  0.05909407  0.57670606
   0.45631390  0.32845159  0.40928789
   0.44888927  0.93615195  0.59473230
   0.50782035  0.04134559  0.58586324
   0.24424715  0.37040632  0.42094710
   0.65852534  0.33000211  0.45034791
   0.46035446  0.31863505  0.52888934
   0.33729937  0.58994254  0.39908301
   0.80307854  0.47657545  0.57976430
   0.06920979  0.89885916  0.48050551
   0.21190758  0.14445432  0.37359659
   0.07823286  0.49398499  0.49468762
   0.55757019  0.85234010  0.47473025
   0.71793488  0.58458084  0.60966694
   0.28664212  0.21010174  0.45911077
   0.08805719  0.62544460  0.56759396
   0.35253711  0.01966048  0.58043218
   0.48567658  0.48209595  0.57125284
   0.46545538  0.47893719  0.69162722

 position of ions in cartesian coordinates  (Angst):
  12.10689678  8.75777448 20.10094118
   9.87330736  9.40391636 20.80904292
   8.93404545  9.18215017 19.77449674
  10.21549138 10.80130455 21.27927417
   7.94869126  8.02412804 19.82196834
  17.81373818  1.86045731 17.50426790
  21.68887124  5.04982630  9.57948250
  18.57310935  3.75615001 10.03976840
  22.81522226 17.09935504  8.74523415
  14.64921175 17.45931981 10.08747787
  19.20986618 18.03075152  9.91976410
  17.55830880  2.55833368 12.31360861
  21.44122362  4.52084854 13.63556125
  13.66032332  5.51363181  8.22435231
  20.82354210  6.05246691 16.53517847
  13.80257162  6.52762231 16.51053779
  13.88989957 15.77910533 15.54434162
   0.58294526  6.08483849 17.67716779
  21.89589338  7.60211669 12.20777585
  17.46806539  9.60990927 11.35790489
  18.66325675  6.92558478 17.05587571
  13.83846346 10.30523625 10.16284657
  16.81946503 11.70510106 10.30871170
  19.69247867  9.82944087 11.28015755
   0.11154425 10.94156933  9.61828518
  19.39294954 12.90878407 12.57986315
  20.51292762 10.86409425 19.39591556
  12.17364643 17.85965257 11.33679820
   5.22293275 17.76161801 10.57067472
   5.06558822  4.31016263  8.58198589
   3.68730349  5.97649684  7.50000000
   7.99605454  2.81940543  8.89228530
   5.21406665  0.82920834  8.67629559
  11.96432934 14.96966922 14.69768266
   9.50780025  4.49325635 17.61683582
   5.69919912  1.69978677 16.10191801
   7.38347683  8.82751530 11.89413327
   9.57419369  7.95041833 10.90632902
   9.32938926 14.37219961 10.45189795
   5.71709332 11.87720376  7.91249741
   7.29826932  7.58329756  9.92688859
   9.49267817 10.58787004  9.10861924
   3.26254231  8.84268607  9.46104865
  13.88920341 12.64839014  9.47364424
  10.98005707 15.61013128 11.93160111
   2.63225336  5.96659044 16.46233111
   1.67029165 12.07758050 17.34197559
   5.73478919  6.46178886 18.16246326
   5.73860049 14.80966060 17.96907780
  12.33867820  7.93226452 20.77938520
  12.65603386  9.68981164 20.29014610
  10.00404133  8.59763693 21.53623794
   8.58143940 10.08305003 19.26280738
  11.18482638 10.85720948 21.79047701
  10.19898451 11.50935405 20.44096246
   9.43495110 11.10363162 22.00021873
   7.60904116  7.74947878 18.81573658
   8.39095475  7.14116609 20.30113146
   7.06234473  8.34030019 20.39924290
   8.63740362 11.74899635 11.80179838
   8.11940335  9.13371715 11.30144811
  20.14926037 10.26241710 18.72961215
   8.15193255 17.40298008 14.29677691
   0.77680044 16.89122673 14.20991057
  14.89790566  1.42919560 13.15609244
   1.60709516  0.94711408 10.62190669
  10.57955331  2.34782959 11.30707087
  18.86679123  3.87160553 12.98914499
  22.78372805  3.28231997 16.09740619
   6.43261122  5.42138248 12.05751853
  13.02497128 14.04561294 11.87575437
   9.16046794 17.61345629 16.69093871
   4.15590840  6.34186119 10.89510594
  20.28225496 12.39813762 17.13476126
  20.26706432 17.52644236 12.55556607
   7.04790320 13.78911669 12.31057251
   9.87045805  4.73421333 10.20482654
  18.99030053  8.43439633 13.98319989
  23.02356407  1.31167463 14.01003987
  11.90674553  8.44909099 16.88973118
   0.80854198 16.67059137 11.54385891
  22.54593219  5.49427402  9.44298747
   1.63005096  6.09065222 10.11814055
   4.87647100 13.20393591 10.62861051
   0.91072893  7.59464512 13.41772355
   5.53136586  5.19104765 15.79820135
   9.26734231  3.59133330 17.34619788
  10.62480748 10.23247779 15.51276332
  21.29805180 13.57345997 14.98671950
  20.34739459  1.95787901 11.88993046
  13.40476402 12.09287863 10.11168720
   3.33439013  2.88355087 10.10739962
   8.20176048 13.88119266 16.31149320
  21.32759690 15.31330727 12.98949491
   1.43600223  9.72877939 11.88926245
  16.58313365 10.06030463 11.28987623
   1.76725442 14.80154965 12.98450890
  16.39878711 14.99633320 11.63069310
  17.09696012  0.89245896 14.59645295
  21.44741117  5.43068437 16.95546167
  17.20021736 15.43313776 16.48124795
  14.63491423  9.55703168 13.07549710
  13.03010146 11.41099800 12.56123752
   9.98328279  4.48868736 14.95425148
  22.90303759 13.19667544 12.81787194
  15.30596152 10.76583631 17.03088349
   9.28639430 13.53039029 13.85498065
  14.10975474  9.38073831 10.36813464
  16.85271439 11.42391876 14.97231115
   3.20120616  6.64730343 16.06157358
   1.54845345  9.94149111 14.56835402
  19.16698023 16.01927532 14.42232123
  19.38959778  6.44001838 12.14868300
  12.35038671  5.40821171 14.29983353
  17.24831536  9.04304013 16.01567558
  13.05025009  3.12466491 10.61647095
  18.86866258  4.64651294 10.30420244
   5.55892333 17.27408272 13.65458756
  16.20882338 14.04635829 14.56420297
  21.61902787 17.20932177 14.86849260
  12.30818899  5.75858696 10.71452528
  10.92481206 17.96015690 14.69140126
  19.61557191  1.71783611 14.51254247
  12.59301152  2.10962891 13.07168996
   8.19848185  3.38158105 11.81890631
   0.27532438 17.44013032  9.01248080
  10.58846522 10.60971323 18.06734251
  15.33358375 16.76934745 10.19493214
   1.78612593 12.43164436 11.71794928
  10.58990209  7.33908462 14.84510542
  16.83785811 12.69249221 10.20446890
  10.54321009 12.76043253 16.15168539
  17.61819454 12.85383870 12.80442605
  18.24566932  2.17844687 16.69724141
  23.25384464  5.58158513 12.05458163
  12.52112762  9.18192716 14.28250299
  19.12182067  9.04361594 11.38355200
   5.50852134  2.64187908 16.27771143
   4.76497818 15.05333538 12.64952801
   5.62157808 10.14246179 14.03729195
   1.43163817 11.33421492 16.76853717
   1.07865368 10.91526713  9.52151395
  18.73862235 17.72310528 16.27445074
  12.59506368  0.50191281 10.87439573
  14.17697413  5.66465028 16.26657861
  20.16990973  0.07395004  9.92550906
   2.22199659  2.70047811 12.55674536
   4.01220902  3.66726075 14.25065917
  15.00637423 12.76530096 12.22697399
  10.22576747  7.42551173 10.38808912
  13.42843476  1.05332480 15.34690001
   3.54535369 10.75328740 10.45651017
   6.26813510 10.91510113 10.54651395
  10.30702050  5.83862960 12.64390410
   5.57211440  2.87241773 11.55719116
   1.70246008  2.71710453 15.12534234
  19.77915796  9.86284506 16.12382418
  14.54261459  5.07285683 11.04652184
  14.10921452 16.15556596 12.56053950
   0.73477264  3.53889327 10.45741115
  14.22582520  3.53903445 14.72130737
   3.10901351 17.00414686 12.89022683
   1.86393767  5.06425852 13.73584204
   8.68781794  1.91869217 15.39751380
   1.56076772 12.63172774 14.40279218
  15.60335581  7.52728779 11.56015827
  18.71162691 13.21694730 15.16519045
  16.47777184 17.34580083 12.64014391
  13.98705970 11.48340064 14.87536687
  16.92262720  5.32192920 12.14235921
  22.88872393  5.69284164 14.71577545
   3.70573999 11.41137036 15.34135333
  14.82716522  5.92171361 13.65139239
  19.18647880  7.18355399 16.28054147
  22.44155659  0.49367766 11.20910044
   6.60319102  3.54742846 13.94726371
   5.83544193  8.02830396 12.39472924
   6.36752382 15.40984885 15.29598094
   4.76813504 12.42343385 13.08920785
   3.44435051  8.62697504 13.24126574
   5.30116627  7.73150310 15.00204444
  21.33745138  8.20429214 12.73515651
  20.36286723 12.76750071 12.47800922
  17.28034963  1.68227812 11.96927179
   5.20160188 16.84878525 10.96698378
   5.43533304  7.16615525 17.56783378
  14.75976108 15.99535321 15.95650492
   9.60385771 14.29878657 11.38342242
  21.48621551  3.55245637 13.66334053
   3.10309823  8.03742301  8.93260776
   3.63220806  5.50021683  8.34890949
   8.73253334  2.37219755  9.35415932
   0.73008295  5.32264058 17.09334660
  13.40739699  4.65476936  8.60535697
   5.74379268 13.97415027 17.47663626
   4.85490080 11.74990154  8.34376522
   6.44687148  7.10699146  9.87629901
   8.55333550 10.82900896  9.20004704
   5.29986877  1.01806602  9.62744117
   5.64688233  3.55318002  8.85384768
  11.73544815 16.16960912 12.22767567
  12.87672321 15.00281067 14.36495154
  12.72683379 11.69398326 17.05839891
  11.20194557  2.22681670 16.01749338
   6.13847847 12.58971304 15.28916269
  10.35896140 15.35492882 15.63436073
  17.91547206 11.18040533 17.46001614
  19.77453857 15.06944239 16.74527820
  14.94953796 13.39095795 16.70199407
   0.18423501  0.59966015 16.20903284
   6.63590088  0.03546796 15.99597111
  11.77388958 17.61812646 16.89655893
  10.33790431  7.03789502 18.66372038
   1.94841153 10.98908596 10.92575188
   9.58080212 13.86680899 15.45316329
  19.70678074  7.99967650 12.57708649
   0.40008717 17.94875972 10.58159830
   0.34415087  5.14987929 10.51358498
   0.21600818  2.07790239 15.38744995
  14.23569828 11.90031447 16.43406784
   5.01132993  8.64030308 13.69805243
  21.42278905 13.69169878 13.34099278
  12.18741762  2.00159257 11.45195358
   9.79485187  3.09591711 15.87444840
   1.95373172  2.52197018 10.94101594
  16.43233932  0.81266960 13.10088356
  15.56990047 16.27354966 11.76083937
  15.21965321  9.13359373 11.56390395
   4.64622068 16.53530673 12.47363180
   4.83668440  6.63470599 16.12173934
  15.75507715 14.72107841 15.99229389
   5.07005805 11.63283491 14.47775133
   8.63383069 13.32142384 12.34509184
  18.65642836 16.08701602 16.00817016
  20.59160095 16.52837130 13.76318287
  13.49170557 10.40786781 13.76295364
  13.80720750  2.09005479 14.12060872
  20.08975493  2.75647992 13.31199648
  19.55247519 10.94083326 17.36189739
   3.13099191  6.52942423  9.59392828
  18.51026388  5.07284540 11.87902451
   9.34522920  3.21642612 10.64589911
  20.03742716 13.59065448 16.03451530
   6.61250258 16.95188818 14.79174547
   0.54020935  5.98811771 13.50205012
  13.45117902 12.60314055 11.70943634
   5.39023881 13.63805192 12.15046292
  13.89760925  5.14430993 14.73544519
  22.79568831  4.92651740 16.19478255
  20.81044864  0.46044249 11.40392910
   2.44589041  3.53866850 13.91723783
   1.12715225 13.28353886 12.97472440
   5.41513718  3.73039554 15.07649282
  13.14328356  4.67138795 10.24864117
  11.13243821 11.32061467 16.69169096
   6.58462689 13.97004669 16.06854723
   4.88127424 11.65920103  9.99508876
  17.33098786 12.86933942 14.40541930
  23.08961294 17.94484396 14.79437415
  16.46058793 13.35205634 11.67438144
  18.44969605  1.07085771 15.50380043
  10.68289909  5.95194918 11.00303640
  10.50907897 16.96423134 15.98840646
  11.88873184  0.74923318 15.74997617
   5.71814202  6.71222076 11.31647527
  15.41693082  5.98004644 12.10686792
  10.77749384  5.77406131 14.21832585
   7.89661487 10.69048858 10.72869482
  18.80110823  8.63613673 15.58601615
   1.62029077 16.28843974 12.91760565
   4.96103075  2.61769098 10.04353415
   1.83153245  8.95161914 13.29886860
  13.05343995 15.44545689 12.76234739
  16.80778487 10.59332797 16.38989992
   6.71066321  3.80730338 12.34244318
   2.06153276 11.33382984 15.25883649
   8.25335003  0.35627225 15.60397114
  11.37031760  8.73617498 15.35719940
  10.89691310  8.67893433 18.59326797



--------------------------------------------------------------------------------------------------------


 k-point  1 :   0.0000 0.0000 0.0000  plane waves:  289505
 k-point  2 :   0.3333 0.0000 0.0000  plane waves:  289422
 k-point  3 :   0.0000 0.3333 0.0000  plane waves:  289550
 k-point  4 :   0.3333 0.3333 0.0000  plane waves:  289551
 k-point  5 :  -0.3333 0.3333 0.0000  plane waves:  289551

 maximum and minimum number of plane-waves per node :     72451    72309

 maximum number of plane-waves:    289551
 maximum index in each direction: 
   IXMAX=   43   IYMAX=   33   IZMAX=   49
   IXMIN=  -43   IYMIN=  -33   IZMIN=  -49


 real space projection operators:
  total allocation   :      13913.96 KBytes
  max/ min on nodes  :       3484.30       3472.70


 parallel 3D FFT for wavefunctions:
    minimum data exchange during FFTs selected (reduces bandwidth)
 parallel 3D FFT for charge:
    minimum data exchange during FFTs selected (reduces bandwidth)


 total amount of memory used by VASP MPI-rank0  2555067. kBytes
=======================================================================

   base      :      30000. kBytes
   nonlr-proj:      17106. kBytes
   fftplans  :      79581. kBytes
   grid      :     173670. kBytes
   one-center:       1088. kBytes
   wavefun   :    2253622. kBytes

     INWAV:  cpu time    0.0000: real time    0.0000
 Broyden mixing: mesh for mixing (old mesh)
   NGX = 85   NGY = 67   NGZ = 99
  (NGX  =256   NGY  =200   NGZ  =300)
  gives a total of 563805 points

 initial charge density was supplied:
 charge density of overlapping atoms calculated
 number of electron    1264.0000000 magnetization 
 keeping initial charge density in first step


--------------------------------------------------------------------------------------------------------


 Maximum index for non-local projection operator          640
 Maximum index for augmentation-charges         1207 (set IRDMAX)


--------------------------------------------------------------------------------------------------------


 First call to EWALD:  gamma=   0.079
 Maximum number of real-space cells 3x 3x 2
 Maximum number of reciprocal cells 3x 2x 3

    FEWALD:  cpu time    0.0948: real time    0.0951


--------------------------------------- Iteration      1(   1)  ---------------------------------------


    POTLOK:  cpu time    1.0452: real time    1.0519
    SETDIJ:  cpu time    2.0469: real time    2.0539
     EDDAV:  cpu time  347.8865: real time  349.2805
       DOS:  cpu time    0.0052: real time    0.0052
    --------------------------------------------
      LOOP:  cpu time  350.9837: real time  352.3915

 eigenvalue-minimisations  :  8608
 total energy-change (2. order) : 0.1299991E+05  (-0.4984608E+05)
 number of electron    1264.0000000 magnetization 
 augmentation part     1264.0000000 magnetization 

 DIPCOR: dipole corrections for dipol
 direction  3 min pos    74,
 dipolmoment           0.000000      0.000000      3.085483 electrons x Angstroem
 Tr[quadrupol]    -95944.830695

 energy correction for charged system         0.000000 eV
 dipol+quadrupol energy correction           -0.077404 eV
 added-field ion interaction        406.292038 eV  (added to PSCEN)


 Free energy of the ion-electron system (eV)
  ---------------------------------------------------
  alpha Z        PSCENC =       901.53144156
  Ewald energy   TEWEN  =    309626.58990254
  -Hartree energ DENC   =   -371997.84194932
  -exchange      EXHF   =         0.00000000
  -V(xc)+E(xc)   XCENC  =      3795.90290095
  PAW double counting   =     60068.29421653   -59086.67348277
  entropy T*S    EENTRO =        -1.62867276
  eigenvalues    EBANDS =     -5185.83940631
  atomic energy  EATOM  =     74879.57743707
  Solvation  Ediel_sol  =         0.00000000
  ---------------------------------------------------
  free energy    TOTEN  =     12999.91238749 eV

  energy without entropy =    13001.54106025  energy(sigma->0) =    13000.72672387


--------------------------------------------------------------------------------------------------------




--------------------------------------- Iteration      1(   2)  ---------------------------------------


     EDDAV:  cpu time  417.7100: real time  419.3889
       DOS:  cpu time    0.0031: real time    0.0031
    --------------------------------------------
      LOOP:  cpu time  417.7131: real time  419.3920

 eigenvalue-minimisations  : 10760
 total energy-change (2. order) :-0.1238088E+05  (-0.1198883E+05)
 number of electron    1264.0000000 magnetization 
 augmentation part     1264.0000000 magnetization 

 DIPCOR: dipole corrections for dipol
 direction  3 min pos    74,
 dipolmoment           0.000000      0.000000      3.085483 electrons x Angstroem
 Tr[quadrupol]    -95944.830695

 energy correction for charged system         0.000000 eV
 dipol+quadrupol energy correction           -0.077404 eV
 added-field ion interaction        406.292038 eV  (added to PSCEN)


 Free energy of the ion-electron system (eV)
  ---------------------------------------------------
  alpha Z        PSCENC =       901.53144156
  Ewald energy   TEWEN  =    309626.58990254
  -Hartree energ DENC   =   -371997.84194932
  -exchange      EXHF   =         0.00000000
  -V(xc)+E(xc)   XCENC  =      3795.90290095
  PAW double counting   =     60068.29421653   -59086.67348277
  entropy T*S    EENTRO =        -0.00000000
  eigenvalues    EBANDS =    -17568.35170572
  atomic energy  EATOM  =     74879.57743707
  Solvation  Ediel_sol  =         0.00000000
  ---------------------------------------------------
  free energy    TOTEN  =       619.02876085 eV

  energy without entropy =      619.02876085  energy(sigma->0) =      619.02876085


--------------------------------------------------------------------------------------------------------




--------------------------------------- Iteration      1(   3)  ---------------------------------------


     EDDAV:  cpu time  361.2744: real time  362.7207
       DOS:  cpu time    0.0032: real time    0.0032
    --------------------------------------------
      LOOP:  cpu time  361.2776: real time  362.7239

 eigenvalue-minimisations  :  9000
 total energy-change (2. order) :-0.2652076E+04  (-0.2641967E+04)
 number of electron    1264.0000000 magnetization 
 augmentation part     1264.0000000 magnetization 

 DIPCOR: dipole corrections for dipol
 direction  3 min pos    74,
[...]
     10.33795      7.03790     18.66378        -0.002179      0.003895     -0.002002
      1.94841     10.98909     10.92575        -0.066664     -0.162895      0.045592
      9.58081     13.86679     15.45315         0.000280     -0.000625     -0.001731
     19.70678      7.99968     12.57709         0.125775     -0.140370     -0.293318
      0.40009     17.94876     10.58160         0.111432     -0.121074      0.306262
      0.34415      5.14988     10.51358         0.054002      0.034231      0.093907
      0.21601      2.07791     15.38748        -0.000292      0.002012      0.001786
     14.23571     11.90031     16.43406         0.000397      0.000014     -0.002596
      5.01134      8.64028     13.69809        -0.000158      0.000806     -0.001074
     21.42279     13.69170     13.34099         0.197320      0.225684     -0.655438
     12.18742      2.00159     11.45195         0.167915     -0.060645      0.483253
      9.79487      3.09587     15.87450         0.001741     -0.001301      0.004948
      1.95373      2.52197     10.94102         0.078966     -0.101146      0.141091
     16.43234      0.81267     13.10088         0.079468     -0.074441     -0.328597
     15.56990     16.27355     11.76084        -0.487389      4.536606     -0.216572
     15.21965      9.13359     11.56390         0.046722      0.078104      0.287632
      4.64622     16.53531     12.47363        -0.713413      6.157880     -0.357784
      4.83667      6.63468     16.12175        -0.001442      0.001131     -0.002358
     15.75508     14.72110     15.99230         0.001118      0.000984     -0.001343
      5.07008     11.63283     14.47775         0.001886     -0.000513     -0.000079
      8.63383     13.32142     12.34509        -0.295318     -0.033045      0.045764
     18.65645     16.08700     16.00818         0.000679     -0.000490      0.003478
     20.59164     16.52839     13.76320         0.001055      0.001190      0.002756
     13.49170     10.40790     13.76297        -0.000919      0.000403     -0.001013
     13.80720      2.09003     14.12060        -0.000481     -0.000219     -0.000378
     20.08975      2.75648     13.31200        -0.193406     -0.034978     -0.439020
     19.55247     10.94079     17.36191        -0.002003     -0.002998     -0.002243
      3.13099      6.52942      9.59393        -0.111455     -0.113590      0.070081
     18.51026      5.07285     11.87902        -0.297690      0.108866      0.071151
      9.34523      3.21643     10.64590        -0.124254     -0.299604      0.226101
     20.03742     13.59066     16.03451        -0.000298      0.000109     -0.000312
      6.61246     16.95189     14.79179        -0.004001      0.001168      0.005470
      0.54021      5.98812     13.50205         0.390217      0.247349     -0.373327
     13.45118     12.60314     11.70944         3.893044     -0.911331     -2.431051
      5.39024     13.63805     12.15046         0.140277     -0.593074      0.007867
     13.89762      5.14431     14.73547         0.000875      0.000897      0.001684
     22.79566      4.92650     16.19481        -0.001407     -0.001369      0.002918
     20.81045      0.46044     11.40393         0.029302      0.044544      0.105376
      2.44594      3.53868     13.91724        -0.003411      0.000051     -0.002048
      1.12715     13.28354     12.97472        -0.129948     -0.560017     -0.252740
      5.41514      3.73042     15.07644        -0.003102     -0.005099     -0.001278
     13.14328      4.67139     10.24864         8.338263     -5.345462     -3.566553
     11.13241     11.32062     16.69171        -0.002947     -0.000909      0.002287
      6.58462     13.97003     16.06858         0.000127     -0.001654      0.000131
      4.88127     11.65920      9.99509         0.078536     -0.071355      0.030576
     17.33098     12.86938     14.40541         0.000253      0.000200     -0.000010
     23.08965     17.94486     14.79440         0.002974      0.000681      0.000081
     16.46059     13.35206     11.67438        -0.717172     -1.373637      0.354997
     18.44967      1.07087     15.50384        -0.003688      0.000521      0.002105
     10.68290      5.95195     11.00304        -1.154646      0.544890      0.496427
     10.50904     16.96420     15.98839        -0.004571     -0.000225     -0.001673
     11.88871      0.74920     15.74998        -0.002606     -0.002825     -0.000579
      5.71814      6.71222     11.31648         0.011952     -0.135523     -0.114750
     15.41693      5.98005     12.10687        -0.162594     -0.442985     -0.828582
     10.77748      5.77407     14.21835        -0.000825      0.001113      0.003379
      7.89661     10.69049     10.72869        -0.113483     -0.065411     -0.029137
     18.80109      8.63608     15.58601        -0.002763     -0.002998     -0.002125
      1.62029     16.28844     12.91761        -0.355193      6.421479     -0.539111
      4.96103      2.61769     10.04353        -0.090557     -0.036009      0.075633
      1.83153      8.95162     13.29887         0.001996     -0.252668     -0.228583
     13.05344     15.44546     12.76235       -22.324591    -15.873133      4.736367
     16.80782     10.59334     16.38987         0.000162      0.000320     -0.000743
      6.71066      3.80730     12.34244        -0.249100      0.029841     -0.705566
      2.06156     11.33383     15.25885         0.002196      0.001787     -0.001215
      8.25335      0.35623     15.60404         0.000445     -0.001541      0.007062
     11.37027      8.73621     15.35724        -0.004342      0.001622      0.002024
     10.89692      8.67895     18.59328         0.000570      0.000260      0.001019
 -----------------------------------------------------------------------------------
    total drift:                                0.185936      0.203153      0.323286


--------------------------------------------------------------------------------------------------------



  FREE ENERGIE OF THE ION-ELECTRON SYSTEM (eV)
  ---------------------------------------------------
  free  energy   TOTEN  =     -1903.22020475 eV

  energy  without entropy=    -1903.22020475  energy(sigma->0) =    -1903.22020475

 d Force = 0.8862773E-04[ 0.485E-04, 0.129E-03]  d Energy = 0.1504781E-03-0.619E-04
 d Force =-0.4776795E-01[-0.478E-01,-0.477E-01]  d Ewald  =-0.4776833E-01 0.379E-06


--------------------------------------------------------------------------------------------------------


    POTLOK:  cpu time    3.0412: real time    3.0540


--------------------------------------------------------------------------------------------------------


 NEB: the previous image is higher in energy: F
 NEB: the next image is higher in energy    : F
 NEB: image is at an extrema
 NEB: diff energy (min, max):     0.015214    0.129460

 NEB: Tangent
 ----------------------------------------------
     -0.12622      0.16869      0.15158
      0.23050     -0.16293     -0.00557
      0.20248     -0.15719     -0.06251
      0.01298     -0.13276      0.10321
      0.15249     -0.12551      0.01281
     -0.00010      0.00034     -0.00046
      0.00000      0.00000      0.00000
      0.00000      0.00000      0.00000
      0.00000      0.00000      0.00000
      0.00000      0.00000      0.00000
      0.00000      0.00000      0.00000
      0.00000      0.00000      0.00000
     -0.00294      0.00026      0.01209
      0.00000      0.00000      0.00000
      0.01114      0.00094     -0.00376
     -0.02283     -0.00190      0.00034
      0.00010     -0.00070     -0.00097
      0.05966      0.03543     -0.07171
      0.00000      0.00000      0.00000
      0.00000      0.00000      0.00000
      0.01849      0.01037      0.01476
      0.00000      0.00000      0.00000
      0.00000      0.00000      0.00000
      0.00000      0.00000      0.00000
      0.00000      0.00000      0.00000
      0.00000      0.00000      0.00000
      0.00468     -0.00070     -0.00210
      0.00000      0.00000      0.00000
      0.00000      0.00000      0.00000
      0.00000      0.00000      0.00000
      0.00000      0.00000      0.00000
      0.00000      0.00000      0.00000
      0.00000      0.00000      0.00000
     -0.00010     -0.00254     -0.00014
      0.03330     -0.02149      0.02246
      0.00212     -0.00237     -0.00254
      0.00000      0.00000      0.00000
      0.00000      0.00000      0.00000
      0.00000      0.00000      0.00000
      0.00000      0.00000      0.00000
      0.00000      0.00000      0.00000
      0.00000      0.00000      0.00000
      0.00000      0.00000      0.00000
      0.00000      0.00000      0.00000
      0.00000      0.00000      0.00000
      0.05400     -0.06500     -0.00078
     -0.00137     -0.00158     -0.00028
     -0.10617      0.03528      0.09882
      0.00340      0.00106      0.00019
     -0.05756      0.19305      0.15573
     -0.17285      0.20014      0.11586
      0.11858     -0.15680      0.01363
      0.11963     -0.10631      0.07953
     -0.07161     -0.04870      0.27139
      0.08592     -0.11812      0.11136
     -0.14651     -0.22088     -0.01996
      0.05138     -0.08305      0.03122
      0.17235     -0.15791     -0.06189
      0.21048     -0.12301      0.10592
      0.00000      0.00000      0.00000
      0.00000      0.00000      0.00000
      0.00019     -0.00024     -0.00047
      0.00026      0.00010     -0.00278
      0.00006     -0.00066      0.00031
      0.00000      0.00000      0.00000
      0.00000      0.00000      0.00000
      0.00000      0.00000      0.00000
      0.00000      0.00000      0.00000
     -0.00184     -0.00339     -0.00208
      0.00000      0.00000      0.00000
      0.00000      0.00000      0.00000
      0.00142     -0.00613     -0.00172
      0.00000      0.00000      0.00000
      0.00077      0.00061      0.00072
      0.00000      0.00000      0.00000
      0.00000      0.00000      0.00000
      0.00000      0.00000      0.00000
      0.00203     -0.00176      0.00092
     -0.00022     -0.00153     -0.00083
     -0.01621     -0.01297     -0.01868
      0.00000      0.00000      0.00000
      0.00000      0.00000      0.00000
      0.00000      0.00000      0.00000
      0.00000      0.00000      0.00000
      0.00000      0.00000      0.00000
      0.00068     -0.00320      0.00254
     -0.00121     -0.00627      0.00022
     -0.00564      0.00251      0.00004
      0.00031     -0.00022      0.00005
      0.00000      0.00000      0.00000
      0.00000      0.00000      0.00000
      0.00000      0.00000      0.00000
     -0.00060      0.00462     -0.00212
      0.00000      0.00000      0.00000
      0.00000      0.00000      0.00000
      0.00000      0.00000      0.00000
      0.00000      0.00000      0.00000
      0.00000      0.00000      0.00000
      0.00006     -0.00007     -0.00014
      0.01567      0.01042      0.00322
      0.00055      0.00063      0.00032
      0.00000      0.00000      0.00000
      0.00000      0.00000      0.00000
      0.00216     -0.00299      0.00059
      0.00000      0.00000      0.00000
      0.00066      0.00042     -0.00071
      0.00287     -0.00245      0.00044
      0.00000      0.00000      0.00000
     -0.00003      0.00073     -0.00024
      0.03682      0.01726      0.10361
     -0.00006     -0.00047     -0.00019
     -0.00005     -0.00008      0.00013
      0.00000      0.00000      0.00000
     -0.00276      0.00370     -0.00004
      0.00196      0.00116      0.00133
      0.00000      0.00000      0.00000
      0.00000      0.00000      0.00000
      0.00000      0.00000      0.00000
      0.00163      0.00160     -0.00100
     -0.00054     -0.00137      0.00082
      0.00000      0.00000      0.00000
      0.00294     -0.00384     -0.00123
     -0.00016     -0.00007     -0.00037
      0.00000      0.00000      0.00000
      0.00000      0.00000      0.00000
      0.00000      0.00000      0.00000
      0.03752     -0.02820      0.00883
      0.00000      0.00000      0.00000
      0.00000      0.00000      0.00000
     -0.01926      0.00079     -0.00720
      0.00000      0.00000      0.00000
     -0.00526     -0.00703      0.01185
      0.00000      0.00000      0.00000
      0.00069     -0.00005     -0.00035
      0.00000      0.00000      0.00000
     -0.01705      0.00126     -0.01712
      0.00000      0.00000      0.00000
     -0.00309     -0.00362     -0.00010
      0.00000      0.00000      0.00000
     -0.00005      0.00046     -0.00014
     -0.00138     -0.00166     -0.00009
      0.00000      0.00000      0.00000
      0.00111     -0.00013     -0.00069
      0.00000      0.00000      0.00000
     -0.00995      0.00411      0.00010
      0.00000      0.00000      0.00000
      0.00000      0.00000      0.00000
     -0.00031      0.00151      0.00070
      0.00000      0.00000      0.00000
      0.00000      0.00000      0.00000
      0.00039      0.00008     -0.00081
      0.00000      0.00000      0.00000
      0.00000      0.00000      0.00000
      0.00000      0.00000      0.00000
      0.00000      0.00000      0.00000
     -0.00037     -0.00028     -0.00092
      0.00077      0.00180     -0.00158
      0.00000      0.00000      0.00000
      0.00000      0.00000      0.00000
      0.00000      0.00000      0.00000
     -0.00071      0.00191     -0.00054
      0.00000      0.00000      0.00000
      0.00265      0.00304      0.00467
      0.00171     -0.00291      0.00078
      0.00007     -0.00020     -0.00010
      0.00000      0.00000      0.00000
      0.00059     -0.00107      0.00050
      0.00000      0.00000      0.00000
     -0.00261     -0.00200     -0.00142
      0.00000      0.00000      0.00000
      0.00110      0.00002      0.00042
     -0.00070      0.00029     -0.00036
      0.00000      0.00000      0.00000
      0.00068     -0.00001     -0.00100
      0.00000      0.00000      0.00000
     -0.00013     -0.00048     -0.00008
      0.00000      0.00000      0.00000
     -0.00064     -0.00066     -0.00322
      0.00000      0.00000      0.00000
      0.00000      0.00000      0.00000
      0.00182      0.00182     -0.00316
      0.00000      0.00000      0.00000
      0.00000      0.00000      0.00000
      0.00000      0.00000      0.00000
      0.00000      0.00000      0.00000
      0.14316      0.05707     -0.03900
      0.00034      0.00043     -0.00179
      0.00000      0.00000      0.00000
      0.00000      0.00000      0.00000
      0.00000      0.00000      0.00000
      0.00000      0.00000      0.00000
      0.00000      0.00000      0.00000
      0.01570     -0.02978     -0.00355
      0.00000      0.00000      0.00000
     -0.00127      0.00198     -0.00182
      0.00000      0.00000      0.00000
      0.00000      0.00000      0.00000
      0.00000      0.00000      0.00000
      0.00000      0.00000      0.00000
      0.00000      0.00000      0.00000
      0.00000      0.00000      0.00000
     -0.00009      0.00002      0.00015
      0.00369      0.00485      0.00032
      0.00205     -0.00320      0.00039
     -0.00102      0.00079      0.00016
      0.00432     -0.00355     -0.00151
      0.00064     -0.00010      0.00000
      0.00017      0.00012     -0.00016
      0.00231      0.00066     -0.00154
     -0.00050     -0.00080     -0.00008
      0.00156     -0.00010     -0.00076
     -0.00010     -0.00074      0.00034
      0.23636     -0.13009      0.07414
      0.00000      0.00000      0.00000
      0.00222     -0.00525      0.00292
      0.00000      0.00000      0.00000
      0.00000      0.00000      0.00000
      0.00000      0.00000      0.00000
      0.00005     -0.00190     -0.00114
      0.00069      0.00100     -0.00184
      0.00054      0.00143     -0.00100
      0.00000      0.00000      0.00000
      0.00000      0.00000      0.00000
      0.00172     -0.00320      0.00094
      0.00000      0.00000      0.00000
      0.00000      0.00000      0.00000
      0.00000      0.00000      0.00000
      0.00000      0.00000      0.00000
      0.00000      0.00000      0.00000
      0.04219      0.01106      0.01759
      0.00080      0.00085     -0.00091
     -0.00003      0.00044      0.00037
      0.00000      0.00000      0.00000
      0.00031      0.00007     -0.00019
     -0.00026     -0.00027     -0.00020
     -0.00344     -0.00173     -0.00212
      0.00007      0.00076     -0.00008
      0.00000      0.00000      0.00000
      0.00069      0.00051     -0.00035
      0.00000      0.00000      0.00000
      0.00000      0.00000      0.00000
      0.00000      0.00000      0.00000
      0.00041      0.00007      0.00016
      0.00077     -0.00056     -0.00112
      0.00000      0.00000      0.00000
      0.00000      0.00000      0.00000
      0.00000      0.00000      0.00000
     -0.00274      0.00177     -0.00063
      0.00788     -0.00435     -0.00014
      0.00000      0.00000      0.00000
      0.00034     -0.00013     -0.00017
      0.00000      0.00000      0.00000
      0.00053     -0.00148      0.00100
      0.00000      0.00000      0.00000
      0.00253     -0.00766      0.00947
     -0.00023      0.00082     -0.00081
      0.00000      0.00000      0.00000
      0.00044      0.00052     -0.00013
     -0.00061     -0.00139      0.00014
      0.00000      0.00000      0.00000
      0.00020     -0.00017     -0.00029
      0.00000      0.00000      0.00000
      0.00260     -0.00392     -0.00109
      0.00124     -0.00257     -0.00059
      0.00000      0.00000      0.00000
      0.00000      0.00000      0.00000
     -0.00396     -0.00078     -0.00025
      0.00000      0.00000      0.00000
      0.00145      0.00031      0.00045
      0.00000      0.00000      0.00000
      0.00000      0.00000      0.00000
      0.00000      0.00000      0.00000
      0.00000      0.00000      0.00000
      0.00064      0.00077     -0.00023
      0.00000      0.00000      0.00000
     -0.00030     -0.00032      0.00009
      0.00250     -0.00324     -0.00089
     -0.01501      0.00181     -0.01577
      0.02177     -0.05023      0.00478

 NEB: forces: par spring, perp REAL, dneb     0.207935    0.094837    0.000000
 NEB: distance to prev, next image, angle between     0.528669    0.570256  126.292201
 NEB: projections on to tangent (spring, REAL)     0.207935   -0.008809

 stress matrix after NEB project (eV)
    -33.02758     -0.01714      0.38981
     -0.01714    -33.51698     -0.43032
      0.38981     -0.43032    -25.41493
  FORCES: max atom, RMS     0.036967    0.005702
  FORCE total and by dimension    0.095246    0.035260
  Stress total and by dimension   53.486474   33.516985
 OPT: skip step - force has converged


--------------------------------------------------------------------------------------------------------


  
 reached required accuracy - stopping structural energy minimisation
     LOOP+:  cpu time  542.4616: real time  544.7814
    4ORBIT:  cpu time    0.0000: real time    0.0000

 total amount of memory used by VASP MPI-rank0  2555067. kBytes
=======================================================================

   base      :      30000. kBytes
   nonlr-proj:      17106. kBytes
   fftplans  :      79581. kBytes
   grid      :     173670. kBytes
   one-center:       1088. kBytes
   wavefun   :    2253622. kBytes

  
  
 General timing and accounting informations for this job:
 ========================================================
  
                  Total CPU time used (sec):     5949.401
                            User time (sec):     5944.858
                          System time (sec):        4.543
                         Elapsed time (sec):     5976.332
  
                   Maximum memory used (kb):     2833976.
                   Average memory used (kb):           0.
  
                          Minor page faults:      1253421
                          Major page faults:           96
                 Voluntary context switches:         3202
