 running on   32 total cores
 distrk:  each k-point on   32 cores,    1 groups
 distr:  one band on    1 cores,   32 groups
 using from now: INCAR     
 vasp.5.4.4.18Apr17-6-g9f103f2a35 (build Oct 20 2021 08:33:53) complex           
 POSCAR found type information on POSCAR  C  H  O  Si W 
 POSCAR found :  5 types and     276 ions
 scaLAPACK will be used

 ----------------------------------------------------------------------------- 
|                                                                             |
|           W    W    AA    RRRRR   N    N  II  N    N   GGGG   !!!           |
|           W    W   A  A   R    R  NN   N  II  NN   N  G    G  !!!           |
|           W    W  A    A  R    R  N N  N  II  N N  N  G       !!!           |
|           W WW W  AAAAAA  RRRRR   N  N N  II  N  N N  G  GGG   !            |
|           WW  WW  A    A  R   R   N   NN  II  N   NN  G    G                |
|           W    W  A    A  R    R  N    N  II  N    N   GGGG   !!!           |
|                                                                             |
|      For optimal performance we recommend to set                            |
|        NCORE= 4 - approx SQRT( number of cores)                             |
|      NCORE specifies how many cores store one orbital (NPAR=cpu/NCORE).     |
|      This setting can  greatly improve the performance of VASP for DFT.     |
|      The default,   NCORE=1            might be grossly inefficient         |
|      on modern multi-core architectures or massively parallel machines.     |
|      Do your own testing !!!!                                               |
|      Unfortunately you need to use the default for GW and RPA calculations. |
|      (for HF NCORE is supported but not extensively tested yet)             |
|                                                                             |
 ----------------------------------------------------------------------------- 


 ----------------------------------------------------------------------------- 
|                                                                             |
|  ADVICE TO THIS USER RUNNING 'VASP/VAMP'   (HEAR YOUR MASTER'S VOICE ...):  |
|                                                                             |
|      You enforced a specific xc-type in the INCAR file,                     |
|      a different type was found on the POTCAR file                          |
|          I HOPE YOU KNOW, WHAT YOU ARE  DOING                               |
|                                                                             |
 ----------------------------------------------------------------------------- 

 LDA part: xc-table for Pade appr. of Perdew
 POSCAR found type information on POSCAR  C  H  O  Si W 
 POSCAR found :  5 types and     276 ions
 POSCAR, INCAR and KPOINTS ok, starting setup
 FFT: planning ...
 WAVECAR not read
 entering main loop
       N       E                     dE             d eps       ncg     rms          rms(c)
DAV:   1     0.129141550327E+05    0.12914E+05   -0.49476E+05  8480   0.123E+03
DAV:   2     0.610457415601E+03   -0.12304E+05   -0.11929E+05 10752   0.311E+02
DAV:   3    -0.202014086788E+04   -0.26306E+04   -0.26213E+04  8864   0.154E+02
DAV:   4    -0.211362086203E+04   -0.93480E+02   -0.93140E+02  8960   0.338E+01
DAV:   5    -0.211613641155E+04   -0.25155E+01   -0.25126E+01  9696   0.491E+00    0.130E+02
RMM:   6    -0.186578081355E+04    0.25036E+03   -0.11097E+03  7680   0.331E+01    0.533E+01
RMM:   7    -0.186442902481E+04    0.13518E+01   -0.58842E+01  7680   0.660E+00    0.294E+01
RMM:   8    -0.186431785943E+04    0.11117E+00   -0.16408E+01  7680   0.366E+00    0.142E+01
RMM:   9    -0.186217845749E+04    0.21394E+01   -0.53350E+00  7680   0.222E+00    0.282E+00
RMM:  10    -0.186191875211E+04    0.25971E+00   -0.68105E-01  7680   0.804E-01    0.157E+00
RMM:  11    -0.186178221294E+04    0.13654E+00   -0.26031E-01  7680   0.489E-01    0.100E+00
RMM:  12    -0.186171749000E+04    0.64723E-01   -0.10833E-01  7680   0.316E-01    0.340E-01
RMM:  13    -0.186170571044E+04    0.11780E-01   -0.16159E-02  8035   0.105E-01    0.327E-01
RMM:  14    -0.186169633382E+04    0.93766E-02   -0.16768E-02  7680   0.115E-01    0.108E-01
RMM:  15    -0.186170048880E+04   -0.41550E-02   -0.10650E-02  7682   0.823E-02    0.948E-02
RMM:  16    -0.186170949347E+04   -0.90047E-02   -0.65104E-03  7683   0.581E-02    0.775E-02
RMM:  17    -0.186171643880E+04   -0.69453E-02   -0.17436E-03  7690   0.328E-02    0.237E-02
RMM:  18    -0.186172114937E+04   -0.47106E-02   -0.54426E-04  7680   0.175E-02    0.235E-02
RMM:  19    -0.186172368350E+04   -0.25341E-02   -0.32982E-04  7680   0.125E-02    0.110E-02
RMM:  20    -0.186172440392E+04   -0.72042E-03   -0.78512E-05  7079   0.611E-03    0.514E-03
RMM:  21    -0.186172471135E+04   -0.30743E-03   -0.17824E-05  6796   0.312E-03    0.423E-03
RMM:  22    -0.186172488872E+04   -0.17737E-03   -0.68258E-06  6051   0.200E-03    0.209E-03
RMM:  23    -0.186172499205E+04   -0.10333E-03   -0.42565E-06  5763   0.145E-03    0.144E-03
RMM:  24    -0.186172503913E+04   -0.47080E-04   -0.17363E-06  4746   0.908E-04    0.791E-04
RMM:  25    -0.186172505585E+04   -0.16722E-04   -0.76209E-07  3814   0.619E-04    0.417E-04
RMM:  26    -0.186172506514E+04   -0.92880E-05   -0.45164E-07  4020   0.494E-04    0.244E-04
RMM:  27    -0.186172506871E+04   -0.35670E-05   -0.17982E-07  3030   0.348E-04    0.126E-04
RMM:  28    -0.186172507108E+04   -0.23724E-05   -0.97676E-08  2822   0.293E-04    0.106E-04
RMM:  29    -0.186172507186E+04   -0.77632E-06   -0.21580E-08  1785   0.236E-04
   1 F= -.18858470E+04 E0= -.18858470E+04  d E =-.111049E-10
 Finite differences POTIM= 0.01500 DOF=  42
 bond charge predicted
       N       E                     dE             d eps       ncg     rms          rms(c)
DAV:   1    -0.186172099481E+04    0.40763E-02   -0.55345E-01  7680   0.532E-01    0.195E-01
RMM:   2    -0.186172050073E+04    0.49408E-03   -0.36904E-03  7227   0.492E-02    0.259E-01
RMM:   3    -0.186172037127E+04    0.12946E-03   -0.16186E-04  6256   0.673E-03    0.213E-01
RMM:   4    -0.186172031088E+04    0.60397E-04   -0.39944E-04  6700   0.104E-02    0.100E-01
RMM:   5    -0.186172024525E+04    0.65621E-04   -0.18040E-04  6420   0.819E-03    0.142E-02
RMM:   6    -0.186172024492E+04    0.33338E-06   -0.57007E-06  5010   0.211E-03
   2 F= -.18858416E+04 E0= -.18858416E+04  d E =-.231465E-10
 Finite differences progress:
  Degree of freedom:   1/ 42
  Displacement:        1/  2
  Total:               1/ 84
 bond charge predicted
       N       E                     dE             d eps       ncg     rms          rms(c)
DAV:   1    -0.186172172793E+04   -0.14827E-02   -0.22077E+00  8000   0.105E+00    0.401E-01
RMM:   2    -0.186171964543E+04    0.20825E-02   -0.14142E-02  7531   0.921E-02    0.501E-01
RMM:   3    -0.186171916066E+04    0.48477E-03   -0.56774E-04  6759   0.131E-02    0.411E-01
RMM:   4    -0.186171890961E+04    0.25105E-03   -0.20697E-03  7112   0.233E-02    0.161E-01
RMM:   5    -0.186171870242E+04    0.20719E-03   -0.54270E-04  6793   0.148E-02    0.265E-02
RMM:   6    -0.186171869289E+04    0.95295E-05   -0.25265E-05  5955   0.387E-03    0.161E-02
RMM:   7    -0.186171869397E+04   -0.10769E-05   -0.14657E-05  5441   0.207E-03    0.541E-03
RMM:   8    -0.186171869707E+04   -0.31052E-05   -0.13898E-06  4144   0.862E-04    0.246E-03
RMM:   9    -0.186171870013E+04   -0.30573E-05   -0.50244E-07  3813   0.565E-04    0.627E-04
RMM:  10    -0.186171870179E+04   -0.16550E-05   -0.15304E-07  2906   0.336E-04    0.432E-04
RMM:  11    -0.186171870429E+04   -0.25085E-05   -0.25163E-07  3318   0.368E-04    0.282E-04
RMM:  12    -0.186171870567E+04   -0.13742E-05   -0.11131E-07  2506   0.289E-04    0.207E-04
RMM:  13    -0.186171870660E+04   -0.93374E-06   -0.11912E-07  2761   0.288E-04
   3 F= -.18858412E+04 E0= -.18858412E+04  d E =-.340741E-11
 Finite differences progress:
  Degree of freedom:   1/ 42
  Displacement:        2/  2
  Total:               2/ 84
 bond charge predicted
       N       E                     dE             d eps       ncg     rms          rms(c)
DAV:   1    -0.186172283701E+04   -0.41313E-02   -0.10710E+00  7680   0.691E-01    0.243E-01
RMM:   2    -0.186172192258E+04    0.91443E-03   -0.50787E-03  7313   0.541E-02    0.225E-01
RMM:   3    -0.186172167799E+04    0.24458E-03   -0.40332E-04  6664   0.106E-02    0.145E-01
RMM:   4    -0.186172161281E+04    0.65185E-04   -0.63548E-04  6880   0.129E-02    0.674E-02
RMM:   5    -0.186172157714E+04    0.35669E-04   -0.88893E-05  6133   0.600E-03    0.136E-02
RMM:   6    -0.186172157701E+04    0.13315E-06   -0.55811E-06  5007   0.175E-03
   4 F= -.18858439E+04 E0= -.18858439E+04  d E =-.205164E-10
 Finite differences progress:
  Degree of freedom:   2/ 42
  Displacement:        1/  2
  Total:               3/ 84
 bond charge predicted
       N       E                     dE             d eps       ncg     rms          rms(c)
DAV:   1    -0.186172426220E+04   -0.26851E-02   -0.20837E+00  7680   0.935E-01    0.327E-01
RMM:   2    -0.186172251472E+04    0.17475E-02   -0.83489E-03  7371   0.701E-02    0.226E-01
RMM:   3    -0.186172205229E+04    0.46243E-03   -0.13789E-03  7006   0.175E-02    0.110E-01
RMM:   4    -0.186172202834E+04    0.23949E-04   -0.62134E-04  6823   0.122E-02    0.506E-02
RMM:   5    -0.186172201732E+04    0.11022E-04   -0.54697E-05  6072   0.459E-03    0.195E-02
RMM:   6    -0.186172201701E+04    0.31639E-06   -0.84048E-06  5362   0.203E-03
   5 F= -.18858434E+04 E0= -.18858434E+04  d E =-.278676E-10
 Finite differences progress:
  Degree of freedom:   2/ 42
  Displacement:        2/  2
  Total:               4/ 84
 bond charge predicted
       N       E                     dE             d eps       ncg     rms          rms(c)
DAV:   1    -0.186172317302E+04   -0.11557E-02   -0.10001E+00  7936   0.583E-01    0.179E-01
RMM:   2    -0.186172281595E+04    0.35707E-03   -0.26052E-03  7019   0.362E-02    0.108E-01
RMM:   3    -0.186172270362E+04    0.11233E-03   -0.58977E-04  6904   0.116E-02    0.277E-02
RMM:   4    -0.186172271133E+04   -0.77089E-05   -0.42726E-05  5892   0.310E-03    0.167E-02
RMM:   5    -0.186172271033E+04    0.10012E-05   -0.46067E-06  4753   0.140E-03    0.681E-03
RMM:   6    -0.186172271026E+04    0.69806E-07   -0.16712E-06  4262   0.100E-03
   6 F= -.18858438E+04 E0= -.18858438E+04  d E =-.492405E-10
 Finite differences progress:
  Degree of freedom:   3/ 42
  Displacement:        1/  2
  Total:               5/ 84
 bond charge predicted
       N       E                     dE             d eps       ncg     rms          rms(c)
DAV:   1    -0.186172302192E+04   -0.31159E-03   -0.20799E+00  7744   0.893E-01    0.302E-01
RMM:   2    -0.186172175681E+04    0.12651E-02   -0.77218E-03  7257   0.678E-02    0.186E-01
RMM:   3    -0.186172131106E+04    0.44574E-03   -0.17639E-03  7063   0.196E-02    0.658E-02
RMM:   4    -0.186172132589E+04   -0.14821E-04   -0.31007E-04  6618   0.856E-03    0.276E-02
RMM:   5    -0.186172132269E+04    0.31910E-05   -0.19738E-05  5811   0.287E-03    0.132E-02
RMM:   6    -0.186172132208E+04    0.61594E-06   -0.53982E-06  4919   0.159E-03
   7 F= -.18858440E+04 E0= -.18858440E+04  d E =-.197789E-10
 Finite differences progress:
  Degree of freedom:   3/ 42
  Displacement:        2/  2
  Total:               6/ 84
 bond charge predicted
       N       E                     dE             d eps       ncg     rms          rms(c)
DAV:   1    -0.186171994172E+04    0.13810E-02   -0.10552E+00  7936   0.664E-01    0.213E-01
RMM:   2    -0.186171972640E+04    0.21532E-03   -0.71569E-03  6962   0.543E-02    0.131E-01
RMM:   3    -0.186171949576E+04    0.23064E-03   -0.11510E-03  6797   0.156E-02    0.398E-02
RMM:   4    -0.186171950517E+04   -0.94046E-05   -0.12962E-04  6117   0.549E-03    0.169E-02
RMM:   5    -0.186171950429E+04    0.87680E-06   -0.10477E-05  4979   0.192E-03    0.884E-03
RMM:   6    -0.186171950471E+04   -0.42164E-06   -0.28753E-06  4135   0.114E-03
   8 F= -.18858412E+04 E0= -.18858412E+04  d E =-.392357E-10
 Finite differences progress:
  Degree of freedom:   4/ 42
  Displacement:        1/  2
  Total:               7/ 84
 bond charge predicted
       N       E                     dE             d eps       ncg     rms          rms(c)
DAV:   1    -0.186172125286E+04   -0.17486E-02   -0.21455E+00  7744   0.801E-01    0.325E-01
RMM:   2    -0.186172058893E+04    0.66393E-03   -0.13152E-02  6603   0.618E-02    0.180E-01
RMM:   3    -0.186172016821E+04    0.42072E-03   -0.26102E-03  6292   0.187E-02    0.459E-02
RMM:   4    -0.186172018118E+04   -0.12967E-04   -0.16731E-04  5661   0.525E-03    0.175E-02
RMM:   5    -0.186172018252E+04   -0.13476E-05   -0.19353E-05  4664   0.197E-03    0.942E-03
RMM:   6    -0.186172018355E+04   -0.10224E-05   -0.43965E-06  4040   0.120E-03    0.525E-03
RMM:   7    -0.186172018455E+04   -0.10065E-05   -0.11741E-06  3474   0.724E-04    0.159E-03
RMM:   8    -0.186172018587E+04   -0.13183E-05   -0.32280E-07  3044   0.431E-04    0.799E-04
RMM:   9    -0.186172018695E+04   -0.10796E-05   -0.10398E-07  2308   0.294E-04    0.477E-04
RMM:  10    -0.186172018877E+04   -0.18199E-05   -0.17433E-07  2708   0.318E-04    0.254E-04
RMM:  11    -0.186172018956E+04   -0.78566E-06   -0.57434E-08  2006   0.249E-04
   9 F= -.18858423E+04 E0= -.18858423E+04  d E =-.331557E-10
 Finite differences progress:
  Degree of freedom:   4/ 42
  Displacement:        2/  2
  Total:               8/ 84
 bond charge predicted
       N       E                     dE             d eps       ncg     rms          rms(c)
DAV:   1    -0.186172054542E+04   -0.35665E-03   -0.10877E+00  8000   0.559E-01    0.224E-01
RMM:   2    -0.186172016063E+04    0.38479E-03   -0.54185E-03  6354   0.403E-02    0.131E-01
RMM:   3    -0.186171995646E+04    0.20417E-03   -0.17353E-03  6097   0.148E-02    0.206E-02
RMM:   4    -0.186171995864E+04   -0.21813E-05   -0.56829E-05  5073   0.344E-03    0.120E-02
RMM:   5    -0.186171995813E+04    0.51124E-06   -0.89168E-06  4031   0.144E-03
  10 F= -.18858414E+04 E0= -.18858414E+04  d E =-.340723E-10
 Finite differences progress:
  Degree of freedom:   5/ 42
  Displacement:        1/  2
  Total:               9/ 84
 bond charge predicted
       N       E                     dE             d eps       ncg     rms          rms(c)
DAV:   1    -0.186172026258E+04   -0.30394E-03   -0.21800E+00  7680   0.769E-01    0.312E-01
RMM:   2    -0.186171943643E+04    0.82615E-03   -0.97027E-03  6587   0.552E-02    0.185E-01
RMM:   3    -0.186171897435E+04    0.46208E-03   -0.35433E-03  6536   0.214E-02    0.260E-02
RMM:   4    -0.186171897557E+04   -0.12116E-05   -0.10068E-04  5691   0.484E-03    0.178E-02
RMM:   5    -0.186171896956E+04    0.60105E-05   -0.17787E-05  4851   0.211E-03    0.110E-02
RMM:   6    -0.186171896880E+04    0.75428E-06   -0.14853E-05  4794   0.171E-03    0.380E-03
RMM:   7    -0.186171897126E+04   -0.24576E-05   -0.20706E-06  3358   0.717E-04    0.144E-03
RMM:   8    -0.186171897452E+04   -0.32605E-05   -0.63415E-07  2970   0.449E-04    0.702E-04
RMM:   9    -0.186171897734E+04   -0.28226E-05   -0.23076E-07  2498   0.325E-04    0.511E-04
RMM:  10    -0.186171898062E+04   -0.32757E-05   -0.21618E-07  2659   0.323E-04    0.225E-04
RMM:  11    -0.186171898256E+04   -0.19388E-05   -0.11710E-07  2253   0.278E-04    0.166E-04
RMM:  12    -0.186171898478E+04   -0.22221E-05   -0.15205E-07  2437   0.288E-04    0.873E-05
RMM:  13    -0.186171898558E+04   -0.80434E-06   -0.47893E-08  1932   0.242E-04
  11 F= -.18858413E+04 E0= -.18858413E+04  d E =-.471667E-10
 Finite differences progress:
  Degree of freedom:   5/ 42
  Displacement:        2/  2
  Total:              10/ 84
 bond charge predicted
       N       E                     dE             d eps       ncg     rms          rms(c)
DAV:   1    -0.186172036354E+04   -0.13788E-02   -0.10759E+00  8128   0.584E-01    0.226E-01
RMM:   2    -0.186171988427E+04    0.47927E-03   -0.49950E-03  6421   0.378E-02    0.130E-01
RMM:   3    -0.186171964561E+04    0.23866E-03   -0.16725E-03  6186   0.143E-02    0.214E-02
RMM:   4    -0.186171964755E+04   -0.19421E-05   -0.56871E-05  4984   0.315E-03    0.124E-02
RMM:   5    -0.186171964730E+04    0.24846E-06   -0.10741E-05  4287   0.153E-03    0.678E-03
RMM:   6    -0.186171964841E+04   -0.11140E-05   -0.16721E-06  3574   0.834E-04    0.333E-03
RMM:   7    -0.186171965013E+04   -0.17159E-05   -0.61665E-07  3247   0.536E-04    0.113E-03
RMM:   8    -0.186171965181E+04   -0.16828E-05   -0.21616E-07  2702   0.352E-04    0.698E-04
RMM:   9    -0.186171965384E+04   -0.20245E-05   -0.11966E-07  2320   0.290E-04    0.351E-04
RMM:  10    -0.186171965628E+04   -0.24459E-05   -0.18607E-07  2806   0.311E-04    0.191E-04
RMM:  11    -0.186171965781E+04   -0.15312E-05   -0.99398E-08  2117   0.265E-04    0.127E-04
RMM:  12    -0.186171965888E+04   -0.10692E-05   -0.87775E-08  2243   0.262E-04    0.711E-05
RMM:  13    -0.186171965926E+04   -0.37304E-06   -0.23188E-08  1673   0.224E-04
  12 F= -.18858412E+04 E0= -.18858412E+04  d E =-.452273E-10
 Finite differences progress:
  Degree of freedom:   6/ 42
  Displacement:        1/  2
  Total:              11/ 84
 bond charge predicted
       N       E                     dE             d eps       ncg     rms          rms(c)
DAV:   1    -0.186172019961E+04   -0.54073E-03   -0.21728E+00  7808   0.817E-01    0.316E-01
RMM:   2    -0.186171947160E+04    0.72801E-03   -0.10912E-02  6598   0.572E-02    0.183E-01
RMM:   3    -0.186171905867E+04    0.41293E-03   -0.33889E-03  6403   0.207E-02    0.292E-02
RMM:   4    -0.186171906191E+04   -0.32417E-05   -0.11463E-04  5632   0.492E-03    0.182E-02
RMM:   5    -0.186171906065E+04    0.12642E-05   -0.15920E-05  4915   0.210E-03    0.113E-02
RMM:   6    -0.186171906309E+04   -0.24444E-05   -0.78438E-06  4377   0.137E-03    0.374E-03
RMM:   7    -0.186171906659E+04   -0.34937E-05   -0.11315E-06  3572   0.649E-04    0.148E-03
RMM:   8    -0.186171907062E+04   -0.40340E-05   -0.57379E-07  3349   0.468E-04    0.827E-04
RMM:   9    -0.186171907339E+04   -0.27652E-05   -0.23038E-07  2853   0.342E-04    0.433E-04
RMM:  10    -0.186171907667E+04   -0.32832E-05   -0.36041E-07  3247   0.377E-04    0.224E-04
RMM:  11    -0.186171907782E+04   -0.11504E-05   -0.81743E-08  2116   0.265E-04    0.150E-04
RMM:  12    -0.186171907931E+04   -0.14947E-05   -0.18093E-07  2955   0.314E-04    0.976E-05
RMM:  13    -0.186171907957E+04   -0.25610E-06   -0.20617E-08  1683   0.223E-04
  13 F= -.18858413E+04 E0= -.18858413E+04  d E =-.409714E-10
 Finite differences progress:
  Degree of freedom:   6/ 42
  Displacement:        2/  2
  Total:              12/ 84
 bond charge predicted
       N       E                     dE             d eps       ncg     rms          rms(c)
DAV:   1    -0.186171978561E+04   -0.70630E-03   -0.11716E+00  8000   0.599E-01    0.249E-01
RMM:   2    -0.186171934071E+04    0.44490E-03   -0.77219E-03  6687   0.468E-02    0.142E-01
RMM:   3    -0.186171908108E+04    0.25963E-03   -0.18338E-03  6545   0.167E-02    0.412E-02
RMM:   4    -0.186171908075E+04    0.32621E-06   -0.12840E-04  6020   0.593E-03    0.237E-02
RMM:   5    -0.186171907592E+04    0.48268E-05   -0.21495E-05  5232   0.258E-03    0.112E-02
RMM:   6    -0.186171907811E+04   -0.21899E-05   -0.60939E-06  4291   0.130E-03    0.403E-03
RMM:   7    -0.186171908045E+04   -0.23363E-05   -0.10279E-06  3537   0.624E-04    0.157E-03
RMM:   8    -0.186171908292E+04   -0.24689E-05   -0.43733E-07  3168   0.439E-04    0.835E-04
RMM:   9    -0.186171908511E+04   -0.21912E-05   -0.17620E-07  2826   0.333E-04    0.521E-04
RMM:  10    -0.186171908834E+04   -0.32325E-05   -0.28399E-07  3213   0.358E-04    0.259E-04
RMM:  11    -0.186171909022E+04   -0.18791E-05   -0.13100E-07  2284   0.285E-04    0.187E-04
RMM:  12    -0.186171909205E+04   -0.18258E-05   -0.17128E-07  2783   0.304E-04    0.100E-04
RMM:  13    -0.186171909259E+04   -0.54165E-06   -0.38957E-08  1806   0.235E-04
  14 F= -.18858414E+04 E0= -.18858414E+04  d E =-.278330E-10
 Finite differences progress:
  Degree of freedom:   7/ 42
  Displacement:        1/  2
  Total:              13/ 84
 bond charge predicted
       N       E                     dE             d eps       ncg     rms          rms(c)
DAV:   1    -0.186172128748E+04   -0.21954E-02   -0.21497E+00  7680   0.825E-01    0.350E-01
RMM:   2    -0.186172063666E+04    0.65082E-03   -0.15690E-02  6992   0.629E-02    0.190E-01
RMM:   3    -0.186172029374E+04    0.34292E-03   -0.27485E-03  6853   0.218E-02    0.748E-02
RMM:   4    -0.186172026366E+04    0.30077E-04   -0.26979E-04  6420   0.924E-03    0.365E-02
RMM:   5    -0.186172024634E+04    0.17319E-04   -0.51211E-05  5856   0.377E-03    0.150E-02
RMM:   6    -0.186172024711E+04   -0.76268E-06   -0.18230E-05  4955   0.196E-03    0.603E-03
RMM:   7    -0.186172024936E+04   -0.22512E-05   -0.16704E-06  3852   0.786E-04    0.312E-03
RMM:   8    -0.186172025402E+04   -0.46627E-05   -0.14998E-06  4042   0.698E-04    0.131E-03
RMM:   9    -0.186172025786E+04   -0.38367E-05   -0.40901E-07  3307   0.426E-04    0.870E-04
RMM:  10    -0.186172026520E+04   -0.73403E-05   -0.82578E-07  3848   0.529E-04    0.547E-04
RMM:  11    -0.186172026897E+04   -0.37743E-05   -0.33875E-07  3108   0.369E-04    0.333E-04
RMM:  12    -0.186172027280E+04   -0.38309E-05   -0.26766E-07  3030   0.344E-04    0.280E-04
RMM:  13    -0.186172027406E+04   -0.12574E-05   -0.71850E-08  2164   0.261E-04    0.105E-04
RMM:  14    -0.186172027511E+04   -0.10466E-05   -0.40657E-08  1959   0.244E-04    0.804E-05
RMM:  15    -0.186172027567E+04   -0.56677E-06   -0.24362E-08  1799   0.234E-04
  15 F= -.18858418E+04 E0= -.18858418E+04  d E =-.690689E-10
 Finite differences progress:
  Degree of freedom:   7/ 42
  Displacement:        2/  2
  Total:              14/ 84
 bond charge predicted
       N       E                     dE             d eps       ncg     rms          rms(c)
DAV:   1    -0.186171953123E+04    0.74387E-03   -0.10146E+00  7680   0.567E-01    0.198E-01
RMM:   2    -0.186171957027E+04   -0.39034E-04   -0.50458E-03  6619   0.377E-02    0.117E-01
RMM:   3    -0.186171949133E+04    0.78938E-04   -0.93743E-04  6466   0.125E-02    0.257E-02
RMM:   4    -0.186171949268E+04   -0.13569E-05   -0.52784E-05  5785   0.395E-03    0.157E-02
RMM:   5    -0.186171949048E+04    0.22028E-05   -0.10239E-05  4865   0.178E-03    0.789E-03
RMM:   6    -0.186171949275E+04   -0.22662E-05   -0.71214E-06  4550   0.126E-03    0.259E-03
RMM:   7    -0.186171949426E+04   -0.15124E-05   -0.73965E-07  3290   0.527E-04    0.112E-03
RMM:   8    -0.186171949680E+04   -0.25395E-05   -0.45876E-07  3248   0.431E-04    0.721E-04
RMM:   9    -0.186171949858E+04   -0.17758E-05   -0.18954E-07  2571   0.316E-04    0.455E-04
RMM:  10    -0.186171950152E+04   -0.29496E-05   -0.31112E-07  3277   0.369E-04    0.529E-04
RMM:  11    -0.186171950228E+04   -0.75520E-06   -0.76735E-08  1878   0.255E-04
  16 F= -.18858416E+04 E0= -.18858416E+04  d E =-.646901E-10
 Finite differences progress:
  Degree of freedom:   8/ 42
  Displacement:        1/  2
  Total:              15/ 84
 bond charge predicted
       N       E                     dE             d eps       ncg     rms          rms(c)
DAV:   1    -0.186172063752E+04   -0.11360E-02   -0.21324E+00  7680   0.780E-01    0.372E-01
RMM:   2    -0.186171969403E+04    0.94349E-03   -0.13776E-02  6818   0.623E-02    0.197E-01
RMM:   3    -0.186171938692E+04    0.30711E-03   -0.30549E-03  6685   0.218E-02    0.607E-02
RMM:   4    -0.186171936947E+04    0.17450E-04   -0.18842E-04  6240   0.759E-03    0.319E-02
RMM:   5    -0.186171935702E+04    0.12453E-04   -0.56275E-05  5768   0.374E-03    0.134E-02
RMM:   6    -0.186171935898E+04   -0.19590E-05   -0.10296E-05  4726   0.167E-03    0.651E-03
RMM:   7    -0.186171936257E+04   -0.35907E-05   -0.16237E-06  3815   0.776E-04    0.280E-03
RMM:   8    -0.186171936663E+04   -0.40665E-05   -0.98177E-07  3808   0.608E-04    0.114E-03
RMM:   9    -0.186171936943E+04   -0.28001E-05   -0.25122E-07  3049   0.364E-04    0.658E-04
RMM:  10    -0.186171937281E+04   -0.33750E-05   -0.27356E-07  3140   0.356E-04    0.355E-04
RMM:  11    -0.186171937512E+04   -0.23113E-05   -0.15453E-07  2452   0.299E-04    0.221E-04
RMM:  12    -0.186171937758E+04   -0.24590E-05   -0.23594E-07  3104   0.332E-04    0.139E-04
RMM:  13    -0.186171937836E+04   -0.78449E-06   -0.49408E-08  1849   0.242E-04
  17 F= -.18858411E+04 E0= -.18858411E+04  d E =-.302202E-10
 Finite differences progress:
  Degree of freedom:   8/ 42
  Displacement:        2/  2
  Total:              16/ 84
 bond charge predicted
       N       E                     dE             d eps       ncg     rms          rms(c)
DAV:   1    -0.186172190272E+04   -0.25251E-02   -0.99943E-01  7744   0.543E-01    0.209E-01
RMM:   2    -0.186172184430E+04    0.58416E-04   -0.51658E-03  6556   0.360E-02    0.119E-01
RMM:   3    -0.186172173193E+04    0.11237E-03   -0.99936E-04  6305   0.123E-02    0.255E-02
RMM:   4    -0.186172173204E+04   -0.11324E-06   -0.45597E-05  5153   0.293E-03    0.140E-02
RMM:   5    -0.186172173342E+04   -0.13763E-05   -0.23526E-05  4770   0.200E-03    0.675E-03
RMM:   6    -0.186172173492E+04   -0.15025E-05   -0.18705E-06  3659   0.925E-04    0.323E-03
RMM:   7    -0.186172173691E+04   -0.19933E-05   -0.12532E-06  3240   0.569E-04    0.135E-03
RMM:   8    -0.186172173976E+04   -0.28456E-05   -0.33415E-07  2903   0.407E-04    0.683E-04
RMM:   9    -0.186172174165E+04   -0.18883E-05   -0.99813E-08  2237   0.282E-04    0.400E-04
RMM:  10    -0.186172174490E+04   -0.32501E-05   -0.26486E-07  3062   0.340E-04    0.281E-04
RMM:  11    -0.186172174685E+04   -0.19557E-05   -0.15596E-07  2409   0.285E-04    0.173E-04
RMM:  12    -0.186172174825E+04   -0.14000E-05   -0.13960E-07  2449   0.281E-04    0.126E-04
RMM:  13    -0.186172174875E+04   -0.50045E-06   -0.44632E-08  1885   0.232E-04
  18 F= -.18858423E+04 E0= -.18858423E+04  d E =-.361322E-10
 Finite differences progress:
  Degree of freedom:   9/ 42
  Displacement:        1/  2
  Total:              17/ 84
 bond charge predicted
       N       E                     dE             d eps       ncg     rms          rms(c)
DAV:   1    -0.186171920754E+04    0.25407E-02   -0.20897E+00  7744   0.804E-01    0.302E-01
RMM:   2    -0.186171908559E+04    0.12195E-03   -0.12532E-02  6923   0.589E-02    0.176E-01
RMM:   3    -0.186171888860E+04    0.19699E-03   -0.19939E-03  6692   0.184E-02    0.533E-02
RMM:   4    -0.186171889522E+04   -0.66248E-05   -0.17267E-04  6237   0.708E-03    0.287E-02
RMM:   5    -0.186171888703E+04    0.81916E-05   -0.28198E-05  5669   0.312E-03    0.116E-02
RMM:   6    -0.186171889067E+04   -0.36441E-05   -0.10686E-05  4769   0.157E-03    0.426E-03
RMM:   7    -0.186171889533E+04   -0.46605E-05   -0.14721E-06  3893   0.744E-04    0.193E-03
RMM:   8    -0.186171890049E+04   -0.51560E-05   -0.86551E-07  3741   0.579E-04    0.991E-04
RMM:   9    -0.186171890388E+04   -0.33859E-05   -0.29982E-07  3297   0.396E-04    0.665E-04
RMM:  10    -0.186171890912E+04   -0.52447E-05   -0.46959E-07  3522   0.445E-04    0.361E-04
RMM:  11    -0.186171891199E+04   -0.28735E-05   -0.24624E-07  3074   0.347E-04    0.234E-04
RMM:  12    -0.186171891415E+04   -0.21601E-05   -0.16098E-07  2890   0.307E-04    0.155E-04
RMM:  13    -0.186171891541E+04   -0.12559E-05   -0.91144E-08  2390   0.268E-04    0.798E-05
RMM:  14    -0.186171891604E+04   -0.63532E-06   -0.37234E-08  1935   0.236E-04
  19 F= -.18858422E+04 E0= -.18858422E+04  d E =-.567976E-10
 Finite differences progress:
  Degree of freedom:   9/ 42
  Displacement:        2/  2
  Total:              18/ 84
 bond charge predicted
       N       E                     dE             d eps       ncg     rms          rms(c)
DAV:   1    -0.186171843911E+04    0.47630E-03   -0.10105E+00  7680   0.561E-01    0.201E-01
RMM:   2    -0.186171852256E+04   -0.83449E-04   -0.66536E-03  6629   0.428E-02    0.120E-01
RMM:   3    -0.186171843263E+04    0.89934E-04   -0.69732E-04  6234   0.104E-02    0.375E-02
RMM:   4    -0.186171843692E+04   -0.42928E-05   -0.68692E-05  5622   0.360E-03    0.129E-02
RMM:   5    -0.186171843982E+04   -0.29017E-05   -0.84232E-06  4583   0.155E-03    0.699E-03
RMM:   6    -0.186171844261E+04   -0.27878E-05   -0.20805E-06  3860   0.959E-04    0.305E-03
RMM:   7    -0.186171844694E+04   -0.43291E-05   -0.93513E-07  3621   0.620E-04    0.117E-03
RMM:   8    -0.186171845061E+04   -0.36751E-05   -0.35581E-07  3219   0.408E-04    0.678E-04
RMM:   9    -0.186171845390E+04   -0.32897E-05   -0.24249E-07  2853   0.344E-04    0.437E-04
RMM:  10    -0.186171845833E+04   -0.44313E-05   -0.39219E-07  3262   0.388E-04    0.258E-04
RMM:  11    -0.186171846021E+04   -0.18770E-05   -0.14556E-07  2350   0.291E-04    0.177E-04
RMM:  12    -0.186171846183E+04   -0.16170E-05   -0.15144E-07  2726   0.295E-04    0.128E-04
RMM:  13    -0.186171846232E+04   -0.48884E-06   -0.33465E-08  1839   0.230E-04
  20 F= -.18858405E+04 E0= -.18858405E+04  d E =-.537416E-10
 Finite differences progress:
  Degree of freedom:  10/ 42
  Displacement:        1/  2
  Total:              19/ 84
 bond charge predicted
       N       E                     dE             d eps       ncg     rms          rms(c)
DAV:   1    -0.186172101704E+04   -0.25552E-02   -0.21772E+00  7680   0.759E-01    0.362E-01
RMM:   2    -0.186171988320E+04    0.11338E-02   -0.11926E-02  6766   0.568E-02    0.197E-01
RMM:   3    -0.186171954542E+04    0.33778E-03   -0.32065E-03  6582   0.210E-02    0.513E-02
RMM:   4    -0.186171953815E+04    0.72682E-05   -0.15354E-04  6071   0.646E-03    0.260E-02
RMM:   5    -0.186171953384E+04    0.43103E-05   -0.39401E-05  5561   0.327E-03    0.129E-02
RMM:   6    -0.186171953518E+04   -0.13449E-05   -0.68053E-06  4339   0.141E-03    0.624E-03
RMM:   7    -0.186171953847E+04   -0.32821E-05   -0.19789E-06  3765   0.773E-04    0.201E-03
RMM:   8    -0.186171954139E+04   -0.29232E-05   -0.63426E-07  3414   0.506E-04    0.955E-04
RMM:   9    -0.186171954366E+04   -0.22689E-05   -0.15479E-07  2593   0.324E-04    0.570E-04
RMM:  10    -0.186171954718E+04   -0.35261E-05   -0.25826E-07  3141   0.355E-04    0.318E-04
RMM:  11    -0.186171954905E+04   -0.18672E-05   -0.94385E-08  2147   0.267E-04    0.200E-04
RMM:  12    -0.186171955134E+04   -0.22894E-05   -0.18315E-07  2800   0.306E-04    0.136E-04
RMM:  13    -0.186171955191E+04   -0.56696E-06   -0.29981E-08  1713   0.227E-04
  21 F= -.18858413E+04 E0= -.18858413E+04  d E =-.387836E-10
 Finite differences progress:
  Degree of freedom:  10/ 42
  Displacement:        2/  2
  Total:              20/ 84
 bond charge predicted
       N       E                     dE             d eps       ncg     rms          rms(c)
DAV:   1    -0.186172032212E+04   -0.77078E-03   -0.10325E+00  7680   0.568E-01    0.203E-01
RMM:   2    -0.186172010551E+04    0.21662E-03   -0.39728E-03  6694   0.347E-02    0.120E-01
RMM:   3    -0.186171999706E+04    0.10844E-03   -0.91272E-04  6517   0.130E-02    0.383E-02
RMM:   4    -0.186171999216E+04    0.48989E-05   -0.90346E-05  6058   0.545E-03    0.168E-02
RMM:   5    -0.186171998913E+04    0.30317E-05   -0.86435E-06  4800   0.183E-03    0.810E-03
RMM:   6    -0.186171999142E+04   -0.22865E-05   -0.59202E-06  4328   0.118E-03    0.256E-03
RMM:   7    -0.186171999368E+04   -0.22633E-05   -0.55182E-07  3383   0.517E-04    0.121E-03
RMM:   8    -0.186171999695E+04   -0.32691E-05   -0.39055E-07  3047   0.396E-04    0.667E-04
RMM:   9    -0.186171999970E+04   -0.27513E-05   -0.21212E-07  2765   0.333E-04    0.502E-04
RMM:  10    -0.186172000430E+04   -0.45925E-05   -0.54947E-07  3379   0.424E-04    0.263E-04
RMM:  11    -0.186172000555E+04   -0.12500E-05   -0.97504E-08  2081   0.269E-04    0.169E-04
RMM:  12    -0.186172000717E+04   -0.16287E-05   -0.14317E-07  2573   0.290E-04    0.115E-04
RMM:  13    -0.186172000765E+04   -0.47925E-06   -0.37113E-08  1853   0.233E-04
  22 F= -.18858418E+04 E0= -.18858418E+04  d E =-.212238E-10
 Finite differences progress:
  Degree of freedom:  11/ 42
  Displacement:        1/  2
  Total:              21/ 84
 bond charge predicted
       N       E                     dE             d eps       ncg     rms          rms(c)
DAV:   1    -0.186172205224E+04   -0.20451E-02   -0.21726E+00  7680   0.795E-01    0.379E-01
RMM:   2    -0.186171993018E+04    0.21221E-02   -0.13175E-02  7094   0.576E-02    0.196E-01
RMM:   3    -0.186171965582E+04    0.27436E-03   -0.26084E-03  6882   0.220E-02    0.896E-02
RMM:   4    -0.186171960873E+04    0.47082E-04   -0.33823E-04  6561   0.107E-02    0.438E-02
RMM:   5    -0.186171959079E+04    0.17941E-04   -0.74211E-05  6031   0.448E-03    0.122E-02
RMM:   6    -0.186171959010E+04    0.69397E-06   -0.76813E-06  4620   0.152E-03
  23 F= -.18858416E+04 E0= -.18858416E+04  d E =-.442829E-12
 Finite differences progress:
  Degree of freedom:  11/ 42
  Displacement:        2/  2
  Total:              22/ 84
 bond charge predicted
       N       E                     dE             d eps       ncg     rms          rms(c)
DAV:   1    -0.186172098116E+04   -0.13904E-02   -0.10211E+00  7776   0.534E-01    0.206E-01
RMM:   2    -0.186172062734E+04    0.35381E-03   -0.40192E-03  6810   0.331E-02    0.115E-01
RMM:   3    -0.186172054607E+04    0.81275E-04   -0.80711E-04  6561   0.124E-02    0.433E-02
RMM:   4    -0.186172054228E+04    0.37912E-05   -0.94229E-05  6108   0.554E-03    0.197E-02
RMM:   5    -0.186172054157E+04    0.70724E-06   -0.14693E-05  5112   0.209E-03    0.775E-03
RMM:   6    -0.186172054354E+04   -0.19681E-05   -0.30083E-06  4065   0.963E-04    0.337E-03
RMM:   7    -0.186172054494E+04   -0.14021E-05   -0.56278E-07  3493   0.535E-04    0.133E-03
RMM:   8    -0.186172054635E+04   -0.14136E-05   -0.27188E-07  3215   0.400E-04    0.594E-04
RMM:   9    -0.186172054735E+04   -0.99302E-06   -0.86527E-08  2520   0.289E-04
  24 F= -.18858425E+04 E0= -.18858425E+04  d E =-.432927E-10
 Finite differences progress:
  Degree of freedom:  12/ 42
  Displacement:        1/  2
  Total:              23/ 84
 bond charge predicted
       N       E                     dE             d eps       ncg     rms          rms(c)
DAV:   1    -0.186172103244E+04   -0.48609E-03   -0.21011E+00  7680   0.784E-01    0.300E-01
RMM:   2    -0.186172074648E+04    0.28596E-03   -0.94289E-03  6779   0.521E-02    0.179E-01
RMM:   3    -0.186172047848E+04    0.26800E-03   -0.23651E-03  6533   0.186E-02    0.294E-02
RMM:   4    -0.186172047720E+04    0.12755E-05   -0.72917E-05  5592   0.411E-03    0.168E-02
RMM:   5    -0.186172047480E+04    0.23999E-05   -0.30244E-05  5227   0.243E-03    0.815E-03
RMM:   6    -0.186172047615E+04   -0.13541E-05   -0.32172E-06  4084   0.113E-03    0.410E-03
RMM:   7    -0.186172047962E+04   -0.34686E-05   -0.21970E-06  3544   0.741E-04    0.171E-03
RMM:   8    -0.186172048246E+04   -0.28417E-05   -0.61297E-07  3366   0.496E-04    0.867E-04
RMM:   9    -0.186172048513E+04   -0.26614E-05   -0.23189E-07  2672   0.341E-04    0.591E-04
RMM:  10    -0.186172049021E+04   -0.50815E-05   -0.57599E-07  3438   0.449E-04    0.438E-04
RMM:  11    -0.186172049186E+04   -0.16519E-05   -0.14505E-07  2315   0.296E-04    0.216E-04
RMM:  12    -0.186172049404E+04   -0.21770E-05   -0.21261E-07  2922   0.323E-04    0.184E-04
RMM:  13    -0.186172049466E+04   -0.62092E-06   -0.44529E-08  1855   0.237E-04
  25 F= -.18858423E+04 E0= -.18858423E+04  d E =-.482079E-10
 Finite differences progress:
  Degree of freedom:  12/ 42
  Displacement:        2/  2
  Total:              24/ 84
 bond charge predicted
       N       E                     dE             d eps       ncg     rms          rms(c)
DAV:   1    -0.186172474538E+04   -0.42513E-02   -0.60342E-01  7744   0.475E-01    0.172E-01
RMM:   2    -0.186172476182E+04   -0.16437E-04   -0.33815E-03  6610   0.327E-02    0.103E-01
RMM:   3    -0.186172469797E+04    0.63850E-04   -0.56462E-04  6397   0.105E-02    0.316E-02
RMM:   4    -0.186172470176E+04   -0.37872E-05   -0.63319E-05  5872   0.446E-03    0.158E-02
RMM:   5    -0.186172469836E+04    0.33977E-05   -0.74659E-06  4702   0.181E-03    0.731E-03
RMM:   6    -0.186172469949E+04   -0.11295E-05   -0.51318E-06  4379   0.119E-03    0.245E-03
RMM:   7    -0.186172470040E+04   -0.91389E-06   -0.32408E-07  3077   0.458E-04
  26 F= -.18858467E+04 E0= -.18858467E+04  d E =-.484040E-10
 Finite differences progress:
  Degree of freedom:  13/ 42
  Displacement:        1/  2
  Total:              25/ 84
 bond charge predicted
       N       E                     dE             d eps       ncg     rms          rms(c)
DAV:   1    -0.186172426778E+04    0.43171E-03   -0.31656E-01  8320   0.338E-01    0.173E-01
RMM:   2    -0.186172426924E+04   -0.14654E-05   -0.16193E-03  6623   0.238E-02    0.103E-01
RMM:   3    -0.186172429135E+04   -0.22108E-04   -0.23188E-04  6626   0.917E-03    0.477E-02
RMM:   4    -0.186172428007E+04    0.11281E-04   -0.71649E-05  5998   0.500E-03    0.127E-02
RMM:   5    -0.186172427961E+04    0.46378E-06   -0.51494E-06  4650   0.169E-03
  27 F= -.18858461E+04 E0= -.18858461E+04  d E =-.472776E-10
 Finite differences progress:
  Degree of freedom:  13/ 42
  Displacement:        2/  2
  Total:              26/ 84
 bond charge predicted
       N       E                     dE             d eps       ncg     rms          rms(c)
DAV:   1    -0.186172357486E+04    0.70521E-03   -0.15854E-01  8288   0.241E-01    0.137E-01
RMM:   2    -0.186172349223E+04    0.82635E-04   -0.10764E-03  6735   0.189E-02    0.825E-02
RMM:   3    -0.186172347863E+04    0.13591E-04   -0.94989E-05  6293   0.583E-03    0.442E-02
RMM:   4    -0.186172348269E+04   -0.40501E-05   -0.55050E-05  5940   0.462E-03    0.141E-02
RMM:   5    -0.186172348141E+04    0.12776E-05   -0.68784E-06  4765   0.180E-03    0.527E-03
RMM:   6    -0.186172348200E+04   -0.59379E-06   -0.14355E-06  3921   0.889E-04
  28 F= -.18858453E+04 E0= -.18858453E+04  d E =-.441492E-10
 Finite differences progress:
  Degree of freedom:  14/ 42
  Displacement:        1/  2
  Total:              27/ 84
 bond charge predicted
       N       E                     dE             d eps       ncg     rms          rms(c)
DAV:   1    -0.186172396021E+04   -0.47881E-03   -0.32939E-01  8352   0.347E-01    0.267E-01
RMM:   2    -0.186172315981E+04    0.80040E-03   -0.45374E-03  7065   0.369E-02    0.158E-01
RMM:   3    -0.186172297566E+04    0.18415E-03   -0.33797E-04  6892   0.110E-02    0.865E-02
RMM:   4    -0.186172295391E+04    0.21756E-04   -0.24921E-04  6411   0.950E-03    0.336E-02
RMM:   5    -0.186172294502E+04    0.88888E-05   -0.36022E-05  5741   0.399E-03    0.123E-02
RMM:   6    -0.186172294451E+04    0.50697E-06   -0.72189E-06  5328   0.191E-03
  29 F= -.18858449E+04 E0= -.18858449E+04  d E =-.484012E-10
 Finite differences progress:
  Degree of freedom:  14/ 42
  Displacement:        2/  2
  Total:              28/ 84
 bond charge predicted
       N       E                     dE             d eps       ncg     rms          rms(c)
DAV:   1    -0.186172287393E+04    0.71085E-04   -0.15056E-01  8288   0.238E-01    0.120E-01
RMM:   2    -0.186172286304E+04    0.10894E-04   -0.54445E-04  6498   0.146E-02    0.713E-02
RMM:   3    -0.186172286995E+04   -0.69134E-05   -0.11557E-04  6108   0.583E-03    0.841E-03
RMM:   4    -0.186172286993E+04    0.18103E-07   -0.57869E-06  4462   0.128E-03
  30 F= -.18858451E+04 E0= -.18858451E+04  d E =-.449070E-10
 Finite differences progress:
  Degree of freedom:  15/ 42
  Displacement:        1/  2
  Total:              29/ 84
 bond charge predicted
       N       E                     dE             d eps       ncg     rms          rms(c)
DAV:   1    -0.186172473375E+04   -0.18638E-02   -0.32675E-01  8384   0.352E-01    0.256E-01
RMM:   2    -0.186172408210E+04    0.65166E-03   -0.41592E-03  6988   0.359E-02    0.153E-01
RMM:   3    -0.186172392491E+04    0.15719E-03   -0.32783E-04  6903   0.110E-02    0.840E-02
RMM:   4    -0.186172390044E+04    0.24470E-04   -0.22578E-04  6404   0.910E-03    0.304E-02
RMM:   5    -0.186172389441E+04    0.60246E-05   -0.30773E-05  5762   0.377E-03    0.125E-02
RMM:   6    -0.186172389395E+04    0.45971E-06   -0.66234E-06  5271   0.180E-03
  31 F= -.18858454E+04 E0= -.18858454E+04  d E =-.476937E-10
 Finite differences progress:
  Degree of freedom:  15/ 42
  Displacement:        2/  2
  Total:              30/ 84
 bond charge predicted
       N       E                     dE             d eps       ncg     rms          rms(c)
DAV:   1    -0.186172305279E+04    0.84163E-03   -0.17115E-01  8480   0.258E-01    0.205E-01
RMM:   2    -0.186172248719E+04    0.56560E-03   -0.33731E-03  7000   0.325E-02    0.123E-01
RMM:   3    -0.186172235743E+04    0.12976E-03   -0.19804E-04  6763   0.877E-03    0.647E-02
RMM:   4    -0.186172234591E+04    0.11523E-04   -0.15077E-04  6316   0.754E-03    0.289E-02
RMM:   5    -0.186172234042E+04    0.54854E-05   -0.26366E-05  5804   0.350E-03    0.116E-02
RMM:   6    -0.186172233985E+04    0.57496E-06   -0.48034E-06  5063   0.168E-03
  32 F= -.18858448E+04 E0= -.18858448E+04  d E =-.458689E-10
 Finite differences progress:
  Degree of freedom:  16/ 42
  Displacement:        1/  2
  Total:              31/ 84
 bond charge predicted
       N       E                     dE             d eps       ncg     rms          rms(c)
DAV:   1    -0.186172418617E+04   -0.18457E-02   -0.34427E-01  8160   0.348E-01    0.269E-01
RMM:   2    -0.186172347804E+04    0.70813E-03   -0.51386E-03  7058   0.395E-02    0.158E-01
RMM:   3    -0.186172330197E+04    0.17607E-03   -0.38570E-04  6958   0.119E-02    0.868E-02
RMM:   4    -0.186172327038E+04    0.31585E-04   -0.26696E-04  6606   0.990E-03    0.333E-02
RMM:   5    -0.186172326149E+04    0.88904E-05   -0.37418E-05  5897   0.421E-03    0.136E-02
RMM:   6    -0.186172326018E+04    0.13125E-05   -0.93251E-06  5533   0.212E-03    0.481E-03
RMM:   7    -0.186172326035E+04   -0.16642E-06   -0.80090E-07  3750   0.699E-04
  33 F= -.18858446E+04 E0= -.18858446E+04  d E =-.462675E-10
 Finite differences progress:
  Degree of freedom:  16/ 42
  Displacement:        2/  2
  Total:              32/ 84
 bond charge predicted
       N       E                     dE             d eps       ncg     rms          rms(c)
DAV:   1    -0.186172425875E+04   -0.99857E-03   -0.17412E-01  8256   0.247E-01    0.210E-01
RMM:   2    -0.186172373967E+04    0.51908E-03   -0.31041E-03  7059   0.307E-02    0.125E-01
RMM:   3    -0.186172361333E+04    0.12634E-03   -0.23294E-04  6785   0.942E-03    0.684E-02
RMM:   4    -0.186172359029E+04    0.23034E-04   -0.15582E-04  6367   0.774E-03    0.267E-02
RMM:   5    -0.186172358455E+04    0.57429E-05   -0.24059E-05  5763   0.336E-03    0.109E-02
RMM:   6    -0.186172358352E+04    0.10292E-05   -0.47948E-06  5005   0.158E-03    0.386E-03
RMM:   7    -0.186172358349E+04    0.33833E-07   -0.59635E-07  3556   0.608E-04
  34 F= -.18858464E+04 E0= -.18858464E+04  d E =-.454333E-10
 Finite differences progress:
  Degree of freedom:  17/ 42
  Displacement:        1/  2
  Total:              33/ 84
 bond charge predicted
       N       E                     dE             d eps       ncg     rms          rms(c)
DAV:   1    -0.186172507416E+04   -0.14906E-02   -0.31847E-01  7840   0.345E-01    0.215E-01
RMM:   2    -0.186172476541E+04    0.30875E-03   -0.26337E-03  7142   0.301E-02    0.131E-01
RMM:   3    -0.186172469548E+04    0.69934E-04   -0.24803E-04  6811   0.958E-03    0.728E-02
RMM:   4    -0.186172468598E+04    0.95012E-05   -0.15344E-04  6470   0.795E-03    0.234E-02
RMM:   5    -0.186172468237E+04    0.36109E-05   -0.19423E-05  5748   0.307E-03    0.964E-03
RMM:   6    -0.186172468144E+04    0.92541E-06   -0.41614E-06  4908   0.146E-03
  35 F= -.18858457E+04 E0= -.18858457E+04  d E =-.477388E-10
 Finite differences progress:
  Degree of freedom:  17/ 42
  Displacement:        2/  2
  Total:              34/ 84
 bond charge predicted
       N       E                     dE             d eps       ncg     rms          rms(c)
DAV:   1    -0.186172461824E+04    0.64124E-04   -0.15225E-01  8000   0.233E-01    0.128E-01
RMM:   2    -0.186172459849E+04    0.19755E-04   -0.60292E-04  6609   0.152E-02    0.753E-02
RMM:   3    -0.186172459902E+04   -0.52778E-06   -0.14472E-04  6377   0.681E-03    0.763E-03
RMM:   4    -0.186172459865E+04    0.36253E-06   -0.58856E-06  4677   0.133E-03
  36 F= -.18858460E+04 E0= -.18858460E+04  d E =-.423508E-10
 Finite differences progress:
  Degree of freedom:  18/ 42
  Displacement:        1/  2
  Total:              35/ 84
 bond charge predicted
       N       E                     dE             d eps       ncg     rms          rms(c)
DAV:   1    -0.186172404888E+04    0.55014E-03   -0.31805E-01  7936   0.336E-01    0.216E-01
RMM:   2    -0.186172371656E+04    0.33232E-03   -0.25226E-03  7052   0.297E-02    0.131E-01
RMM:   3    -0.186172363674E+04    0.79820E-04   -0.24949E-04  6814   0.953E-03    0.724E-02
RMM:   4    -0.186172362461E+04    0.12129E-04   -0.16309E-04  6368   0.796E-03    0.230E-02
RMM:   5    -0.186172362072E+04    0.38921E-05   -0.18966E-05  5699   0.296E-03    0.976E-03
RMM:   6    -0.186172361977E+04    0.95261E-06   -0.51584E-06  4964   0.154E-03
  37 F= -.18858461E+04 E0= -.18858461E+04  d E =-.500374E-10
 Finite differences progress:
  Degree of freedom:  18/ 42
  Displacement:        2/  2
  Total:              36/ 84
 bond charge predicted
       N       E                     dE             d eps       ncg     rms          rms(c)
DAV:   1    -0.186172361747E+04    0.32459E-05   -0.15972E-01  8192   0.245E-01    0.134E-01
RMM:   2    -0.186172357102E+04    0.46448E-04   -0.12839E-03  6756   0.201E-02    0.821E-02
RMM:   3    -0.186172356147E+04    0.95596E-05   -0.13106E-04  6397   0.661E-03    0.434E-02
RMM:   4    -0.186172356453E+04   -0.30670E-05   -0.65351E-05  6027   0.489E-03    0.124E-02
RMM:   5    -0.186172356366E+04    0.87504E-06   -0.57315E-06  4760   0.169E-03
  38 F= -.18858457E+04 E0= -.18858457E+04  d E =-.497550E-10
 Finite differences progress:
  Degree of freedom:  19/ 42
  Displacement:        1/  2
  Total:              37/ 84
 bond charge predicted
       N       E                     dE             d eps       ncg     rms          rms(c)
DAV:   1    -0.186172545451E+04   -0.18900E-02   -0.32179E-01  7584   0.264E-01    0.166E-01
RMM:   2    -0.186172545729E+04   -0.27730E-05   -0.13850E-03  6171   0.172E-02    0.993E-02
RMM:   3    -0.186172547803E+04   -0.20741E-04   -0.32383E-04  5857   0.738E-03    0.111E-02
RMM:   4    -0.186172547699E+04    0.10337E-05   -0.94883E-06  4236   0.165E-03    0.667E-03
RMM:   5    -0.186172547801E+04   -0.10199E-05   -0.51935E-06  3570   0.107E-03    0.347E-03
RMM:   6    -0.186172547992E+04   -0.19087E-05   -0.12975E-06  3281   0.690E-04    0.165E-03
RMM:   7    -0.186172548216E+04   -0.22328E-05   -0.40177E-07  2849   0.408E-04    0.817E-04
RMM:   8    -0.186172548464E+04   -0.24849E-05   -0.26841E-07  2516   0.344E-04    0.662E-04
RMM:   9    -0.186172548592E+04   -0.12848E-05   -0.11753E-07  2136   0.279E-04    0.305E-04
RMM:  10    -0.186172548858E+04   -0.26557E-05   -0.24973E-07  2762   0.326E-04    0.257E-04
RMM:  11    -0.186172548903E+04   -0.44536E-06   -0.25977E-08  1623   0.223E-04
  39 F= -.18858472E+04 E0= -.18858472E+04  d E =-.451951E-10
 Finite differences progress:
  Degree of freedom:  19/ 42
  Displacement:        2/  2
  Total:              38/ 84
 bond charge predicted
       N       E                     dE             d eps       ncg     rms          rms(c)
DAV:   1    -0.186172263257E+04    0.28560E-02   -0.16709E-01  7680   0.196E-01    0.177E-01
RMM:   2    -0.186172227291E+04    0.35966E-03   -0.17206E-03  5913   0.187E-02    0.955E-02
RMM:   3    -0.186172223892E+04    0.33992E-04   -0.75910E-04  5670   0.949E-03    0.271E-02
RMM:   4    -0.186172222538E+04    0.13541E-04   -0.27562E-05  4550   0.247E-03    0.121E-02
RMM:   5    -0.186172222752E+04   -0.21455E-05   -0.36374E-05  4510   0.227E-03    0.681E-03
RMM:   6    -0.186172222695E+04    0.57109E-06   -0.10417E-06  3290   0.734E-04
  40 F= -.18858445E+04 E0= -.18858445E+04  d E =-.474091E-10
 Finite differences progress:
  Degree of freedom:  20/ 42
  Displacement:        1/  2
  Total:              39/ 84
 bond charge predicted
       N       E                     dE             d eps       ncg     rms          rms(c)
DAV:   1    -0.186172382103E+04   -0.15935E-02   -0.34954E-01  7872   0.285E-01    0.294E-01
RMM:   2    -0.186172270501E+04    0.11160E-02   -0.50458E-03  6319   0.322E-02    0.153E-01
RMM:   3    -0.186172257171E+04    0.13331E-03   -0.20971E-03  6141   0.158E-02    0.463E-02
RMM:   4    -0.186172253285E+04    0.38855E-04   -0.75119E-05  5271   0.407E-03    0.192E-02
RMM:   5    -0.186172253426E+04   -0.14095E-05   -0.80273E-05  5096   0.334E-03    0.105E-02
RMM:   6    -0.186172253228E+04    0.19811E-05   -0.24144E-06  3659   0.102E-03    0.550E-03
RMM:   7    -0.186172253400E+04   -0.17153E-05   -0.14586E-05  3692   0.131E-03    0.439E-03
RMM:   8    -0.186172253414E+04   -0.14104E-06   -0.14178E-06  2984   0.548E-04
  41 F= -.18858441E+04 E0= -.18858441E+04  d E =-.448828E-10
 Finite differences progress:
  Degree of freedom:  20/ 42
  Displacement:        2/  2
  Total:              40/ 84
 bond charge predicted
       N       E                     dE             d eps       ncg     rms          rms(c)
DAV:   1    -0.186172446754E+04   -0.19335E-02   -0.17697E-01  7744   0.198E-01    0.222E-01
RMM:   2    -0.186172381547E+04    0.65207E-03   -0.28430E-03  6185   0.242E-02    0.115E-01
RMM:   3    -0.186172373945E+04    0.76022E-04   -0.11795E-03  5820   0.118E-02    0.349E-02
RMM:   4    -0.186172371854E+04    0.20902E-04   -0.44195E-05  4863   0.298E-03    0.137E-02
RMM:   5    -0.186172372026E+04   -0.17178E-05   -0.42067E-05  4752   0.239E-03    0.716E-03
RMM:   6    -0.186172371918E+04    0.10785E-05   -0.13206E-06  3341   0.748E-04    0.375E-03
RMM:   7    -0.186172372019E+04   -0.10029E-05   -0.90706E-06  3526   0.105E-03    0.385E-03
RMM:   8    -0.186172372011E+04    0.73924E-07   -0.95018E-07  2785   0.458E-04
  42 F= -.18858457E+04 E0= -.18858457E+04  d E =-.443356E-10
 Finite differences progress:
  Degree of freedom:  21/ 42
  Displacement:        1/  2
  Total:              41/ 84
 bond charge predicted
       N       E                     dE             d eps       ncg     rms          rms(c)
DAV:   1    -0.186172448646E+04   -0.76627E-03   -0.33143E-01  7712   0.271E-01    0.209E-01
RMM:   2    -0.186172419403E+04    0.29243E-03   -0.20930E-03  6273   0.209E-02    0.117E-01
RMM:   3    -0.186172416873E+04    0.25302E-04   -0.85201E-04  6042   0.108E-02    0.271E-02
RMM:   4    -0.186172415494E+04    0.13794E-04   -0.32393E-05  4702   0.256E-03    0.105E-02
RMM:   5    -0.186172415861E+04   -0.36756E-05   -0.34909E-05  4628   0.208E-03    0.542E-03
RMM:   6    -0.186172415977E+04   -0.11571E-05   -0.48203E-06  3330   0.838E-04    0.192E-03
RMM:   7    -0.186172416311E+04   -0.33428E-05   -0.90041E-07  3233   0.533E-04    0.156E-03
RMM:   8    -0.186172416400E+04   -0.89218E-06   -0.15796E-07  2323   0.303E-04
  43 F= -.18858460E+04 E0= -.18858460E+04  d E =-.493840E-10
 Finite differences progress:
  Degree of freedom:  21/ 42
  Displacement:        2/  2
  Total:              42/ 84
 bond charge predicted
       N       E                     dE             d eps       ncg     rms          rms(c)
DAV:   1    -0.186172388407E+04    0.27904E-03   -0.16473E-01  7840   0.209E-01    0.134E-01
RMM:   2    -0.186172383394E+04    0.50124E-04   -0.97475E-04  6004   0.152E-02    0.792E-02
RMM:   3    -0.186172383505E+04   -0.11094E-05   -0.26651E-04  5697   0.649E-03    0.102E-02
RMM:   4    -0.186172383429E+04    0.76006E-06   -0.68328E-06  3877   0.131E-03
  44 F= -.18858459E+04 E0= -.18858459E+04  d E =-.472562E-10
 Finite differences progress:
  Degree of freedom:  22/ 42
  Displacement:        1/  2
  Total:              43/ 84
 bond charge predicted
       N       E                     dE             d eps       ncg     rms          rms(c)
DAV:   1    -0.186172500281E+04   -0.11678E-02   -0.32823E-01  7712   0.270E-01    0.180E-01
RMM:   2    -0.186172493048E+04    0.72324E-04   -0.16276E-03  5911   0.185E-02    0.106E-01
RMM:   3    -0.186172493813E+04   -0.76515E-05   -0.52387E-04  5721   0.875E-03    0.163E-02
RMM:   4    -0.186172493200E+04    0.61305E-05   -0.13302E-05  4164   0.174E-03    0.849E-03
RMM:   5    -0.186172493284E+04   -0.83371E-06   -0.25521E-05  4196   0.174E-03    0.417E-03
RMM:   6    -0.186172493283E+04    0.29395E-08   -0.15190E-06  2985   0.570E-04
  45 F= -.18858467E+04 E0= -.18858467E+04  d E =-.459607E-10
 Finite differences progress:
  Degree of freedom:  22/ 42
  Displacement:        2/  2
  Total:              44/ 84
 bond charge predicted
       N       E                     dE             d eps       ncg     rms          rms(c)
DAV:   1    -0.186172415930E+04    0.77353E-03   -0.17151E-01  7936   0.198E-01    0.178E-01
RMM:   2    -0.186172384001E+04    0.31929E-03   -0.18037E-03  5827   0.185E-02    0.961E-02
RMM:   3    -0.186172380768E+04    0.32328E-04   -0.73601E-04  5564   0.953E-03    0.262E-02
RMM:   4    -0.186172379508E+04    0.12596E-04   -0.25757E-05  4351   0.232E-03    0.107E-02
RMM:   5    -0.186172379610E+04   -0.10179E-05   -0.30901E-05  4315   0.197E-03    0.550E-03
RMM:   6    -0.186172379565E+04    0.44920E-06   -0.10250E-06  3163   0.582E-04
  46 F= -.18858450E+04 E0= -.18858450E+04  d E =-.460692E-10
 Finite differences progress:
  Degree of freedom:  23/ 42
  Displacement:        1/  2
  Total:              45/ 84
 bond charge predicted
       N       E                     dE             d eps       ncg     rms          rms(c)
DAV:   1    -0.186172321330E+04    0.58280E-03   -0.34115E-01  7968   0.281E-01    0.256E-01
RMM:   2    -0.186172250845E+04    0.70485E-03   -0.37306E-03  6098   0.274E-02    0.139E-01
RMM:   3    -0.186172240354E+04    0.10490E-03   -0.15877E-03  5951   0.136E-02    0.391E-02
RMM:   4    -0.186172237066E+04    0.32881E-04   -0.62854E-05  4920   0.347E-03    0.152E-02
RMM:   5    -0.186172237291E+04   -0.22423E-05   -0.55378E-05  4793   0.272E-03    0.827E-03
RMM:   6    -0.186172237185E+04    0.10526E-05   -0.17944E-06  3380   0.816E-04    0.450E-03
RMM:   7    -0.186172237555E+04   -0.37012E-05   -0.16443E-05  3747   0.137E-03    0.560E-03
RMM:   8    -0.186172237595E+04   -0.39779E-06   -0.23423E-06  2922   0.608E-04
  47 F= -.18858450E+04 E0= -.18858450E+04  d E =-.462919E-10
 Finite differences progress:
  Degree of freedom:  23/ 42
  Displacement:        2/  2
  Total:              46/ 84
 bond charge predicted
       N       E                     dE             d eps       ncg     rms          rms(c)
DAV:   1    -0.186172320299E+04   -0.82743E-03   -0.16182E-01  7648   0.192E-01    0.116E-01
RMM:   2    -0.186172321549E+04   -0.12502E-04   -0.67540E-04  5707   0.121E-02    0.694E-02
RMM:   3    -0.186172322466E+04   -0.91667E-05   -0.14766E-04  5386   0.527E-03    0.520E-03
RMM:   4    -0.186172322478E+04   -0.12071E-06   -0.35182E-06  3576   0.965E-04
  48 F= -.18858452E+04 E0= -.18858452E+04  d E =-.466431E-10
 Finite differences progress:
  Degree of freedom:  24/ 42
  Displacement:        1/  2
  Total:              47/ 84
 bond charge predicted
       N       E                     dE             d eps       ncg     rms          rms(c)
DAV:   1    -0.186172391143E+04   -0.68678E-03   -0.34162E-01  8000   0.281E-01    0.250E-01
RMM:   2    -0.186172332922E+04    0.58221E-03   -0.33989E-03  6227   0.263E-02    0.135E-01
RMM:   3    -0.186172324585E+04    0.83365E-04   -0.15152E-03  6004   0.136E-02    0.364E-02
RMM:   4    -0.186172321990E+04    0.25950E-04   -0.43074E-05  4862   0.309E-03    0.183E-02
RMM:   5    -0.186172322060E+04   -0.69152E-06   -0.94870E-05  5285   0.336E-03    0.974E-03
RMM:   6    -0.186172321832E+04    0.22702E-05   -0.21446E-06  3465   0.884E-04    0.543E-03
RMM:   7    -0.186172321959E+04   -0.12617E-05   -0.17547E-05  3777   0.142E-03    0.500E-03
RMM:   8    -0.186172321907E+04    0.51601E-06   -0.17044E-06  3030   0.569E-04
  49 F= -.18858450E+04 E0= -.18858450E+04  d E =-.458906E-10
 Finite differences progress:
  Degree of freedom:  24/ 42
  Displacement:        2/  2
  Total:              48/ 84
 bond charge predicted
       N       E                     dE             d eps       ncg     rms          rms(c)
DAV:   1    -0.186172264649E+04    0.57309E-03   -0.16894E-01  8320   0.213E-01    0.169E-01
RMM:   2    -0.186172254130E+04    0.10519E-03   -0.14105E-03  6064   0.195E-02    0.991E-02
RMM:   3    -0.186172249285E+04    0.48447E-04   -0.34662E-04  5816   0.773E-03    0.106E-02
RMM:   4    -0.186172249224E+04    0.61745E-06   -0.91343E-06  4082   0.148E-03
  50 F= -.18858443E+04 E0= -.18858443E+04  d E =-.492476E-10
 Finite differences progress:
  Degree of freedom:  25/ 42
  Displacement:        1/  2
  Total:              49/ 84
 bond charge predicted
       N       E                     dE             d eps       ncg     rms          rms(c)
DAV:   1    -0.186172406357E+04   -0.15707E-02   -0.34629E-01  8224   0.277E-01    0.264E-01
RMM:   2    -0.186172333049E+04    0.73308E-03   -0.39437E-03  6316   0.294E-02    0.142E-01
RMM:   3    -0.186172322738E+04    0.10311E-03   -0.17486E-03  6150   0.144E-02    0.394E-02
RMM:   4    -0.186172319798E+04    0.29405E-04   -0.50890E-05  4900   0.320E-03    0.185E-02
RMM:   5    -0.186172320025E+04   -0.22706E-05   -0.92159E-05  5166   0.326E-03    0.889E-03
RMM:   6    -0.186172319743E+04    0.28183E-05   -0.10619E-05  3636   0.119E-03    0.234E-03
RMM:   7    -0.186172319829E+04   -0.85842E-06   -0.33564E-06  3337   0.824E-04
  51 F= -.18858452E+04 E0= -.18858452E+04  d E =-.437290E-10
 Finite differences progress:
  Degree of freedom:  25/ 42
  Displacement:        2/  2
  Total:              50/ 84
 bond charge predicted
       N       E                     dE             d eps       ncg     rms          rms(c)
DAV:   1    -0.186172475900E+04   -0.15616E-02   -0.16530E-01  8192   0.192E-01    0.142E-01
RMM:   2    -0.186172463927E+04    0.11974E-03   -0.10915E-03  5873   0.153E-02    0.805E-02
RMM:   3    -0.186172463602E+04    0.32417E-05   -0.39058E-04  5704   0.736E-03    0.184E-02
RMM:   4    -0.186172462927E+04    0.67565E-05   -0.15530E-05  4205   0.180E-03    0.656E-03
RMM:   5    -0.186172463013E+04   -0.86246E-06   -0.12382E-05  3954   0.133E-03    0.325E-03
RMM:   6    -0.186172463020E+04   -0.66037E-07   -0.57024E-07  2952   0.470E-04
  52 F= -.18858462E+04 E0= -.18858462E+04  d E =-.490156E-10
 Finite differences progress:
  Degree of freedom:  26/ 42
  Displacement:        1/  2
  Total:              51/ 84
 bond charge predicted
       N       E                     dE             d eps       ncg     rms          rms(c)
DAV:   1    -0.186172445541E+04    0.17472E-03   -0.32376E-01  8000   0.267E-01    0.169E-01
RMM:   2    -0.186172446208E+04   -0.66691E-05   -0.12999E-03  6130   0.170E-02    0.100E-01
RMM:   3    -0.186172448008E+04   -0.18004E-04   -0.33301E-04  6010   0.754E-03    0.108E-02
RMM:   4    -0.186172447890E+04    0.11818E-05   -0.85934E-06  4252   0.155E-03    0.636E-03
RMM:   5    -0.186172447897E+04   -0.69020E-07   -0.43130E-06  3711   0.102E-03
  53 F= -.18858467E+04 E0= -.18858467E+04  d E =-.451131E-10
 Finite differences progress:
  Degree of freedom:  26/ 42
  Displacement:        2/  2
  Total:              52/ 84
 bond charge predicted
       N       E                     dE             d eps       ncg     rms          rms(c)
DAV:   1    -0.186172421366E+04    0.26524E-03   -0.16569E-01  8288   0.189E-01    0.136E-01
RMM:   2    -0.186172415192E+04    0.61742E-04   -0.93072E-04  6147   0.141E-02    0.790E-02
RMM:   3    -0.186172415638E+04   -0.44673E-05   -0.33061E-04  5960   0.711E-03    0.154E-02
RMM:   4    -0.186172415078E+04    0.56052E-05   -0.91666E-06  4075   0.158E-03    0.819E-03
RMM:   5    -0.186172415048E+04    0.29556E-06   -0.17978E-05  4093   0.158E-03    0.435E-03
RMM:   6    -0.186172415050E+04   -0.20751E-07   -0.48109E-07  3139   0.590E-04
  54 F= -.18858451E+04 E0= -.18858451E+04  d E =-.452140E-10
 Finite differences progress:
  Degree of freedom:  27/ 42
  Displacement:        1/  2
  Total:              53/ 84
 bond charge predicted
       N       E                     dE             d eps       ncg     rms          rms(c)
DAV:   1    -0.186172315390E+04    0.99658E-03   -0.34003E-01  8192   0.273E-01    0.238E-01
RMM:   2    -0.186172260639E+04    0.54751E-03   -0.30363E-03  6358   0.254E-02    0.131E-01
RMM:   3    -0.186172254209E+04    0.64291E-04   -0.13651E-03  6240   0.132E-02    0.358E-02
RMM:   4    -0.186172251568E+04    0.26416E-04   -0.48954E-05  5264   0.339E-03    0.166E-02
RMM:   5    -0.186172251689E+04   -0.12090E-05   -0.60053E-05  5263   0.301E-03    0.911E-03
RMM:   6    -0.186172251573E+04    0.11567E-05   -0.19968E-06  3603   0.980E-04    0.437E-03
RMM:   7    -0.186172251717E+04   -0.14363E-05   -0.63277E-06  3388   0.921E-04    0.232E-03
RMM:   8    -0.186172251876E+04   -0.15936E-05   -0.55690E-07  2987   0.462E-04    0.112E-03
RMM:   9    -0.186172252033E+04   -0.15711E-05   -0.69228E-07  2514   0.396E-04    0.745E-04
RMM:  10    -0.186172252181E+04   -0.14819E-05   -0.12748E-07  2219   0.290E-04    0.255E-04
RMM:  11    -0.186172252281E+04   -0.99195E-06   -0.10746E-07  2222   0.272E-04
  55 F= -.18858454E+04 E0= -.18858454E+04  d E =-.478858E-10
 Finite differences progress:
  Degree of freedom:  27/ 42
  Displacement:        2/  2
  Total:              54/ 84
 bond charge predicted
       N       E                     dE             d eps       ncg     rms          rms(c)
DAV:   1    -0.186172446135E+04   -0.19395E-02   -0.16549E-01  8256   0.220E-01    0.148E-01
RMM:   2    -0.186172437501E+04    0.86338E-04   -0.15158E-03  6305   0.196E-02    0.860E-02
RMM:   3    -0.186172436067E+04    0.14343E-04   -0.44199E-04  6115   0.830E-03    0.195E-02
RMM:   4    -0.186172435344E+04    0.72286E-05   -0.14185E-05  4484   0.190E-03    0.911E-03
RMM:   5    -0.186172435300E+04    0.43977E-06   -0.19237E-05  4515   0.163E-03    0.342E-03
RMM:   6    -0.186172435304E+04   -0.38388E-07   -0.92364E-07  3023   0.510E-04
  56 F= -.18858459E+04 E0= -.18858459E+04  d E =-.463259E-10
 Finite differences progress:
  Degree of freedom:  28/ 42
  Displacement:        1/  2
  Total:              55/ 84
 bond charge predicted
       N       E                     dE             d eps       ncg     rms          rms(c)
DAV:   1    -0.186172444728E+04   -0.94279E-04   -0.32359E-01  8032   0.276E-01    0.189E-01
RMM:   2    -0.186172435335E+04    0.93930E-04   -0.16944E-03  6434   0.205E-02    0.109E-01
RMM:   3    -0.186172434140E+04    0.11950E-04   -0.30634E-04  6241   0.827E-03    0.205E-02
RMM:   4    -0.186172434290E+04   -0.15037E-05   -0.20121E-05  5310   0.255E-03    0.748E-03
RMM:   5    -0.186172434224E+04    0.66427E-06   -0.24223E-06  3934   0.102E-03
  57 F= -.18858465E+04 E0= -.18858465E+04  d E =-.468715E-10
 Finite differences progress:
  Degree of freedom:  28/ 42
  Displacement:        2/  2
  Total:              56/ 84
 bond charge predicted
       N       E                     dE             d eps       ncg     rms          rms(c)
DAV:   1    -0.186172452027E+04   -0.17736E-03   -0.16203E-01  8384   0.200E-01    0.173E-01
RMM:   2    -0.186172424890E+04    0.27136E-03   -0.16239E-03  6410   0.192E-02    0.938E-02
RMM:   3    -0.186172420605E+04    0.42854E-04   -0.26657E-04  6095   0.691E-03    0.302E-02
RMM:   4    -0.186172420757E+04   -0.15243E-05   -0.31679E-05  5657   0.324E-03    0.114E-02
RMM:   5    -0.186172420631E+04    0.12592E-05   -0.45571E-06  4392   0.140E-03    0.471E-03
RMM:   6    -0.186172420632E+04   -0.36525E-08   -0.14786E-06  3568   0.722E-04
  58 F= -.18858457E+04 E0= -.18858457E+04  d E =-.466056E-10
 Finite differences progress:
  Degree of freedom:  29/ 42
  Displacement:        1/  2
  Total:              57/ 84
 bond charge predicted
       N       E                     dE             d eps       ncg     rms          rms(c)
DAV:   1    -0.186172338846E+04    0.81786E-03   -0.33214E-01  8192   0.281E-01    0.242E-01
RMM:   2    -0.186172288075E+04    0.50771E-03   -0.32196E-03  6627   0.270E-02    0.132E-01
RMM:   3    -0.186172279346E+04    0.87292E-04   -0.60709E-04  6328   0.102E-02    0.415E-02
RMM:   4    -0.186172279589E+04   -0.24324E-05   -0.63479E-05  5944   0.465E-03    0.173E-02
RMM:   5    -0.186172279245E+04    0.34402E-05   -0.11288E-05  5094   0.212E-03    0.659E-03
RMM:   6    -0.186172279222E+04    0.22587E-06   -0.32239E-06  3931   0.977E-04
  59 F= -.18858451E+04 E0= -.18858451E+04  d E =-.465332E-10
 Finite differences progress:
  Degree of freedom:  29/ 42
  Displacement:        2/  2
  Total:              58/ 84
 bond charge predicted
       N       E                     dE             d eps       ncg     rms          rms(c)
DAV:   1    -0.186172407949E+04   -0.12870E-02   -0.15823E-01  8192   0.198E-01    0.135E-01
RMM:   2    -0.186172404117E+04    0.38324E-04   -0.80082E-04  6266   0.141E-02    0.794E-02
RMM:   3    -0.186172403575E+04    0.54198E-05   -0.17846E-04  6113   0.627E-03    0.947E-03
RMM:   4    -0.186172403579E+04   -0.41444E-07   -0.72440E-06  4657   0.158E-03
  60 F= -.18858449E+04 E0= -.18858449E+04  d E =-.461666E-10
 Finite differences progress:
  Degree of freedom:  30/ 42
  Displacement:        1/  2
  Total:              59/ 84
 bond charge predicted
       N       E                     dE             d eps       ncg     rms          rms(c)
DAV:   1    -0.186172256301E+04    0.14727E-02   -0.34005E-01  8256   0.287E-01    0.272E-01
RMM:   2    -0.186172174077E+04    0.82224E-03   -0.40354E-03  6702   0.312E-02    0.146E-01
RMM:   3    -0.186172161271E+04    0.12806E-03   -0.72096E-04  6412   0.111E-02    0.522E-02
RMM:   4    -0.186172160755E+04    0.51602E-05   -0.95199E-05  6118   0.570E-03    0.219E-02
RMM:   5    -0.186172160118E+04    0.63739E-05   -0.16167E-05  5429   0.257E-03    0.765E-03
RMM:   6    -0.186172160066E+04    0.52035E-06   -0.33229E-06  4043   0.105E-03
  61 F= -.18858445E+04 E0= -.18858445E+04  d E =-.467967E-10
 Finite differences progress:
  Degree of freedom:  30/ 42
  Displacement:        2/  2
  Total:              60/ 84
 bond charge predicted
       N       E                     dE             d eps       ncg     rms          rms(c)
DAV:   1    -0.186172255456E+04   -0.95338E-03   -0.17030E-01  8288   0.204E-01    0.205E-01
RMM:   2    -0.186172202730E+04    0.52726E-03   -0.28928E-03  6458   0.246E-02    0.105E-01
RMM:   3    -0.186172197940E+04    0.47901E-04   -0.28749E-04  5923   0.682E-03    0.462E-02
RMM:   4    -0.186172197631E+04    0.30859E-05   -0.54215E-05  5682   0.367E-03    0.806E-03
RMM:   5    -0.186172197569E+04    0.62308E-06   -0.36721E-06  3983   0.106E-03
  62 F= -.18858438E+04 E0= -.18858438E+04  d E =-.526835E-10
 Finite differences progress:
  Degree of freedom:  31/ 42
  Displacement:        1/  2
  Total:              61/ 84
 bond charge predicted
       N       E                     dE             d eps       ncg     rms          rms(c)
DAV:   1    -0.186172361853E+04   -0.16422E-02   -0.34974E-01  8320   0.261E-01    0.306E-01
RMM:   2    -0.186172242642E+04    0.11921E-02   -0.53882E-03  6623   0.326E-02    0.155E-01
RMM:   3    -0.186172226448E+04    0.16195E-03   -0.84728E-04  6338   0.119E-02    0.608E-02
RMM:   4    -0.186172226407E+04    0.40216E-06   -0.12480E-04  6080   0.634E-03    0.266E-02
RMM:   5    -0.186172225691E+04    0.71679E-05   -0.21436E-05  5462   0.297E-03    0.795E-03
RMM:   6    -0.186172225665E+04    0.25702E-06   -0.42977E-06  3854   0.110E-03
  63 F= -.18858442E+04 E0= -.18858442E+04  d E =-.412719E-10
 Finite differences progress:
  Degree of freedom:  31/ 42
  Displacement:        2/  2
  Total:              62/ 84
 bond charge predicted
       N       E                     dE             d eps       ncg     rms          rms(c)
DAV:   1    -0.186172546703E+04   -0.32101E-02   -0.16284E-01  8160   0.183E-01    0.170E-01
RMM:   2    -0.186172520414E+04    0.26289E-03   -0.14611E-03  6236   0.166E-02    0.915E-02
RMM:   3    -0.186172517569E+04    0.28451E-04   -0.22530E-04  5850   0.624E-03    0.316E-02
RMM:   4    -0.186172517924E+04   -0.35524E-05   -0.33568E-05  5570   0.329E-03    0.132E-02
RMM:   5    -0.186172517735E+04    0.18927E-05   -0.52064E-06  4418   0.150E-03    0.403E-03
RMM:   6    -0.186172517739E+04   -0.46057E-07   -0.11455E-06  3311   0.649E-04
  64 F= -.18858467E+04 E0= -.18858467E+04  d E =-.497266E-10
 Finite differences progress:
  Degree of freedom:  32/ 42
  Displacement:        1/  2
  Total:              63/ 84
 bond charge predicted
       N       E                     dE             d eps       ncg     rms          rms(c)
DAV:   1    -0.186172393521E+04    0.12421E-02   -0.31910E-01  7776   0.250E-01    0.177E-01
RMM:   2    -0.186172392888E+04    0.63226E-05   -0.16242E-03  6067   0.181E-02    0.105E-01
RMM:   3    -0.186172394246E+04   -0.13577E-04   -0.37739E-04  6084   0.790E-03    0.113E-02
RMM:   4    -0.186172394052E+04    0.19450E-05   -0.10848E-05  4320   0.169E-03    0.609E-03
RMM:   5    -0.186172393990E+04    0.61149E-06   -0.37717E-06  3747   0.993E-04
  65 F= -.18858462E+04 E0= -.18858462E+04  d E =-.432931E-10
 Finite differences progress:
  Degree of freedom:  32/ 42
  Displacement:        2/  2
  Total:              64/ 84
 bond charge predicted
       N       E                     dE             d eps       ncg     rms          rms(c)
DAV:   1    -0.186172508348E+04   -0.11430E-02   -0.15954E-01  8224   0.180E-01    0.150E-01
RMM:   2    -0.186172495326E+04    0.13023E-03   -0.10740E-03  6136   0.153E-02    0.846E-02
RMM:   3    -0.186172494576E+04    0.74975E-05   -0.20768E-04  5807   0.600E-03    0.216E-02
RMM:   4    -0.186172494834E+04   -0.25822E-05   -0.18316E-05  5198   0.248E-03    0.924E-03
RMM:   5    -0.186172494735E+04    0.99398E-06   -0.28190E-06  3903   0.110E-03
  66 F= -.18858460E+04 E0= -.18858460E+04  d E =-.464103E-10
 Finite differences progress:
  Degree of freedom:  33/ 42
  Displacement:        1/  2
  Total:              65/ 84
 bond charge predicted
       N       E                     dE             d eps       ncg     rms          rms(c)
DAV:   1    -0.186172322858E+04    0.17198E-02   -0.32425E-01  8192   0.255E-01    0.217E-01
RMM:   2    -0.186172291300E+04    0.31558E-03   -0.24167E-03  6396   0.217E-02    0.121E-01
RMM:   3    -0.186172287244E+04    0.40562E-04   -0.35661E-04  6146   0.797E-03    0.373E-02
RMM:   4    -0.186172287614E+04   -0.36961E-05   -0.47807E-05  5909   0.395E-03    0.144E-02
RMM:   5    -0.186172287356E+04    0.25729E-05   -0.62258E-06  4690   0.162E-03    0.486E-03
RMM:   6    -0.186172287431E+04   -0.74827E-06   -0.18502E-06  3657   0.796E-04
  67 F= -.18858457E+04 E0= -.18858457E+04  d E =-.466161E-10
 Finite differences progress:
  Degree of freedom:  33/ 42
  Displacement:        2/  2
  Total:              66/ 84
 bond charge predicted
       N       E                     dE             d eps       ncg     rms          rms(c)
DAV:   1    -0.186172485255E+04   -0.19790E-02   -0.16187E-01  8320   0.192E-01    0.140E-01
RMM:   2    -0.186172467677E+04    0.17578E-03   -0.10434E-03  6210   0.138E-02    0.761E-02
RMM:   3    -0.186172467407E+04    0.27021E-05   -0.19299E-04  5798   0.556E-03    0.251E-02
RMM:   4    -0.186172468065E+04   -0.65807E-05   -0.25826E-05  5471   0.282E-03    0.103E-02
RMM:   5    -0.186172467988E+04    0.76828E-06   -0.32083E-06  4143   0.122E-03
  68 F= -.18858460E+04 E0= -.18858460E+04  d E =-.465968E-10
 Finite differences progress:
  Degree of freedom:  34/ 42
  Displacement:        1/  2
  Total:              67/ 84
 bond charge predicted
       N       E                     dE             d eps       ncg     rms          rms(c)
DAV:   1    -0.186172431451E+04    0.36613E-03   -0.31989E-01  7712   0.253E-01    0.180E-01
RMM:   2    -0.186172422016E+04    0.94358E-04   -0.15312E-03  6058   0.173E-02    0.105E-01
RMM:   3    -0.186172422812E+04   -0.79640E-05   -0.28854E-04  5703   0.705E-03    0.182E-02
RMM:   4    -0.186172423177E+04   -0.36532E-05   -0.17546E-05  4536   0.203E-03    0.608E-03
RMM:   5    -0.186172423211E+04   -0.34002E-06   -0.16914E-06  3496   0.864E-04
  69 F= -.18858467E+04 E0= -.18858467E+04  d E =-.459697E-10
 Finite differences progress:
  Degree of freedom:  34/ 42
  Displacement:        2/  2
  Total:              68/ 84
 bond charge predicted
       N       E                     dE             d eps       ncg     rms          rms(c)
DAV:   1    -0.186172413688E+04    0.94888E-04   -0.16178E-01  7968   0.189E-01    0.170E-01
RMM:   2    -0.186172384656E+04    0.29033E-03   -0.13988E-03  5995   0.167E-02    0.921E-02
RMM:   3    -0.186172381970E+04    0.26863E-04   -0.22884E-04  5579   0.604E-03    0.302E-02
RMM:   4    -0.186172382401E+04   -0.43182E-05   -0.25903E-05  5078   0.272E-03    0.909E-03
RMM:   5    -0.186172382327E+04    0.74111E-06   -0.31904E-06  3980   0.117E-03
  70 F= -.18858454E+04 E0= -.18858454E+04  d E =-.466914E-10
 Finite differences progress:
  Degree of freedom:  35/ 42
  Displacement:        1/  2
  Total:              69/ 84
 bond charge predicted
       N       E                     dE             d eps       ncg     rms          rms(c)
DAV:   1    -0.186172373922E+04    0.84789E-04   -0.32836E-01  7744   0.265E-01    0.244E-01
RMM:   2    -0.186172312500E+04    0.61422E-03   -0.30122E-03  6271   0.251E-02    0.131E-01
RMM:   3    -0.186172304316E+04    0.81840E-04   -0.59244E-04  6011   0.933E-03    0.424E-02
RMM:   4    -0.186172304385E+04   -0.69125E-06   -0.56851E-05  5615   0.391E-03    0.136E-02
RMM:   5    -0.186172304228E+04    0.15769E-05   -0.83751E-06  4683   0.175E-03    0.663E-03
RMM:   6    -0.186172304235E+04   -0.72148E-07   -0.22115E-06  3564   0.875E-04
  71 F= -.18858453E+04 E0= -.18858453E+04  d E =-.464262E-10
 Finite differences progress:
  Degree of freedom:  35/ 42
  Displacement:        2/  2
  Total:              70/ 84
 bond charge predicted
       N       E                     dE             d eps       ncg     rms          rms(c)
DAV:   1    -0.186172322599E+04   -0.18371E-03   -0.15360E-01  7648   0.181E-01    0.123E-01
RMM:   2    -0.186172320901E+04    0.16976E-04   -0.69297E-04  5793   0.121E-02    0.732E-02
RMM:   3    -0.186172321530E+04   -0.62871E-05   -0.13980E-04  5397   0.506E-03    0.758E-03
RMM:   4    -0.186172321565E+04   -0.35141E-06   -0.50253E-06  3767   0.116E-03
  72 F= -.18858448E+04 E0= -.18858448E+04  d E =-.490250E-10
 Finite differences progress:
  Degree of freedom:  36/ 42
  Displacement:        1/  2
  Total:              71/ 84
 bond charge predicted
       N       E                     dE             d eps       ncg     rms          rms(c)
DAV:   1    -0.186172348299E+04   -0.26769E-03   -0.33374E-01  7776   0.266E-01    0.276E-01
RMM:   2    -0.186172255888E+04    0.92411E-03   -0.38032E-03  6465   0.269E-02    0.144E-01
RMM:   3    -0.186172243915E+04    0.11972E-03   -0.60647E-04  6090   0.963E-03    0.518E-02
RMM:   4    -0.186172244527E+04   -0.61168E-05   -0.78730E-05  5860   0.463E-03    0.162E-02
RMM:   5    -0.186172244281E+04    0.24619E-05   -0.10172E-05  4941   0.199E-03    0.760E-03
RMM:   6    -0.186172244261E+04    0.19395E-06   -0.31669E-06  3688   0.991E-04
  73 F= -.18858447E+04 E0= -.18858447E+04  d E =-.441992E-10
 Finite differences progress:
  Degree of freedom:  36/ 42
  Displacement:        2/  2
  Total:              72/ 84
 bond charge predicted
       N       E                     dE             d eps       ncg     rms          rms(c)
DAV:   1    -0.186172273949E+04   -0.29668E-03   -0.13090E+00  7712   0.996E-01    0.244E-01
RMM:   2    -0.186172313502E+04   -0.39553E-03   -0.95004E-03  7332   0.789E-02    0.296E-01
RMM:   3    -0.186172307086E+04    0.64161E-04   -0.29912E-04  6506   0.102E-02    0.268E-01
RMM:   4    -0.186172308727E+04   -0.16410E-04   -0.25931E-04  6702   0.113E-02    0.147E-01
RMM:   5    -0.186172298559E+04    0.10168E-03   -0.34817E-04  6636   0.123E-02    0.400E-02
RMM:   6    -0.186172298349E+04    0.20988E-05   -0.95704E-06  5350   0.235E-03    0.317E-02
RMM:   7    -0.186172298502E+04   -0.15358E-05   -0.92077E-06  5178   0.217E-03    0.984E-03
RMM:   8    -0.186172298986E+04   -0.48348E-05   -0.32180E-06  4704   0.128E-03    0.216E-03
RMM:   9    -0.186172299202E+04   -0.21648E-05   -0.31452E-07  3212   0.502E-04    0.127E-03
RMM:  10    -0.186172299559E+04   -0.35628E-05   -0.37751E-07  3449   0.486E-04    0.809E-04
RMM:  11    -0.186172299768E+04   -0.20905E-05   -0.19079E-07  3070   0.356E-04    0.116E-03
RMM:  12    -0.186172299978E+04   -0.21073E-05   -0.16373E-07  3020   0.327E-04    0.302E-04
RMM:  13    -0.186172300120E+04   -0.14137E-05   -0.13598E-07  2799   0.308E-04    0.273E-04
RMM:  14    -0.186172300180E+04   -0.60390E-06   -0.36628E-08  1934   0.237E-04
  74 F= -.18858456E+04 E0= -.18858456E+04  d E =-.561201E-10
 Finite differences progress:
  Degree of freedom:  37/ 42
  Displacement:        1/  2
  Total:              73/ 84
 bond charge predicted
       N       E                     dE             d eps       ncg     rms          rms(c)
DAV:   1    -0.186172196250E+04    0.10387E-02   -0.48841E+00  7680   0.190E+00    0.435E-01
RMM:   2    -0.186172407982E+04   -0.21173E-02   -0.31484E-02  7557   0.145E-01    0.544E-01
RMM:   3    -0.186172398783E+04    0.91990E-04   -0.95960E-04  6771   0.178E-02    0.538E-01
RMM:   4    -0.186172412112E+04   -0.13329E-03   -0.57851E-04  7124   0.165E-02    0.444E-01
RMM:   5    -0.186172384535E+04    0.27578E-03   -0.37479E-03  7508   0.408E-02    0.350E-01
RMM:   6    -0.186172368814E+04    0.15721E-03   -0.11392E-04  6846   0.863E-03    0.254E-01
RMM:   7    -0.186172359276E+04    0.95383E-04   -0.23211E-04  6915   0.104E-02    0.101E-01
RMM:   8    -0.186172360624E+04   -0.13479E-04   -0.10041E-04  6400   0.674E-03    0.152E-02
RMM:   9    -0.186172361776E+04   -0.11520E-04   -0.51607E-06  5134   0.169E-03    0.731E-03
RMM:  10    -0.186172362924E+04   -0.11482E-04   -0.11528E-06  3998   0.795E-04    0.616E-03
RMM:  11    -0.186172364412E+04   -0.14885E-04   -0.28862E-06  4825   0.114E-03    0.831E-03
RMM:  12    -0.186172364971E+04   -0.55830E-05   -0.61277E-07  3453   0.587E-04    0.458E-03
RMM:  13    -0.186172365667E+04   -0.69664E-05   -0.14389E-06  4157   0.812E-04    0.267E-03
RMM:  14    -0.186172365940E+04   -0.27275E-05   -0.32967E-07  3138   0.417E-04    0.103E-03
RMM:  15    -0.186172366087E+04   -0.14702E-05   -0.13897E-07  2770   0.310E-04    0.940E-04
RMM:  16    -0.186172366188E+04   -0.10114E-05   -0.83908E-08  2637   0.285E-04    0.390E-04
RMM:  17    -0.186172366229E+04   -0.41403E-06   -0.34115E-08  2042   0.243E-04
  75 F= -.18858448E+04 E0= -.18858448E+04  d E =-.386821E-10
 Finite differences progress:
  Degree of freedom:  37/ 42
  Displacement:        2/  2
  Total:              74/ 84
 bond charge predicted
       N       E                     dE             d eps       ncg     rms          rms(c)
DAV:   1    -0.186172070922E+04    0.29527E-02   -0.24683E+00  7680   0.135E+00    0.447E-01
RMM:   2    -0.186172197025E+04   -0.12610E-02   -0.20153E-02  7520   0.107E-01    0.595E-01
RMM:   3    -0.186172193002E+04    0.40231E-04   -0.49520E-04  6687   0.130E-02    0.607E-01
RMM:   4    -0.186172203968E+04   -0.10966E-03   -0.18315E-04  7079   0.967E-03    0.609E-01
RMM:   5    -0.186172396311E+04   -0.19234E-02   -0.31751E-03  7633   0.382E-02    0.124E+00
RMM:   6    -0.186172300741E+04    0.95571E-03   -0.22034E-02  7680   0.104E-01    0.123E+00
RMM:   7    -0.186172240013E+04    0.60728E-03   -0.13781E-03  7262   0.248E-02    0.804E-01
RMM:   8    -0.186172173110E+04    0.66903E-03   -0.62199E-03  7656   0.551E-02    0.331E-01
RMM:   9    -0.186172159159E+04    0.13952E-03   -0.17145E-04  6816   0.107E-02    0.538E-02
RMM:  10    -0.186172158206E+04    0.95223E-05   -0.59356E-05  6522   0.553E-03    0.324E-02
RMM:  11    -0.186172159584E+04   -0.13772E-04   -0.10855E-05  5654   0.264E-03    0.281E-02
RMM:  12    -0.186172159978E+04   -0.39413E-05   -0.10424E-06  3796   0.835E-04    0.161E-02
RMM:  13    -0.186172160844E+04   -0.86580E-05   -0.70531E-07  3807   0.619E-04    0.184E-02
RMM:  14    -0.186172161205E+04   -0.36119E-05   -0.26171E-07  3198   0.385E-04    0.165E-02
RMM:  15    -0.186172161702E+04   -0.49713E-05   -0.14563E-06  4252   0.879E-04    0.193E-03
RMM:  16    -0.186172161926E+04   -0.22439E-05   -0.38819E-07  3360   0.497E-04    0.278E-03
RMM:  17    -0.186172162034E+04   -0.10740E-05   -0.73186E-08  2399   0.276E-04    0.246E-03
RMM:  18    -0.186172162119E+04   -0.85658E-06   -0.24633E-08  1846   0.236E-04
  76 F= -.18858441E+04 E0= -.18858441E+04  d E =-.653437E-10
 Finite differences progress:
  Degree of freedom:  38/ 42
  Displacement:        1/  2
  Total:              75/ 84
 bond charge predicted
       N       E                     dE             d eps       ncg     rms          rms(c)
DAV:   1    -0.186172190107E+04   -0.28073E-03   -0.48761E+00  7680   0.191E+00    0.523E-01
RMM:   2    -0.186172434773E+04   -0.24467E-02   -0.35689E-02  7550   0.155E-01    0.649E-01
RMM:   3    -0.186172427784E+04    0.69888E-04   -0.10095E-03  6895   0.188E-02    0.656E-01
RMM:   4    -0.186172453016E+04   -0.25232E-03   -0.54323E-04  7148   0.160E-02    0.633E-01
RMM:   5    -0.186172500477E+04   -0.47461E-03   -0.89815E-03  7669   0.648E-02    0.890E-01
RMM:   6    -0.186172500569E+04   -0.91417E-06   -0.65230E-04  7433   0.208E-02    0.926E-01
RMM:   7    -0.186172390464E+04    0.11011E-02   -0.18763E-03  7574   0.306E-02    0.324E-01
RMM:   8    -0.186172384204E+04    0.62597E-04   -0.10689E-03  7433   0.224E-02    0.474E-02
RMM:   9    -0.186172383790E+04    0.41420E-05   -0.24115E-05  6065   0.409E-03    0.272E-02
RMM:  10    -0.186172384600E+04   -0.81054E-05   -0.46288E-06  5255   0.170E-03    0.376E-02
RMM:  11    -0.186172386795E+04   -0.21942E-04   -0.22367E-05  5883   0.337E-03    0.325E-02
RMM:  12    -0.186172386994E+04   -0.19942E-05   -0.93533E-07  3886   0.807E-04    0.187E-02
RMM:  13    -0.186172387595E+04   -0.60130E-05   -0.12785E-06  3809   0.820E-04    0.754E-03
RMM:  14    -0.186172388168E+04   -0.57293E-05   -0.52812E-07  3657   0.537E-04    0.602E-03
RMM:  15    -0.186172388676E+04   -0.50749E-05   -0.10955E-06  3962   0.725E-04    0.256E-03
RMM:  16    -0.186172388770E+04   -0.94627E-06   -0.15291E-07  2864   0.348E-04
  77 F= -.18858452E+04 E0= -.18858452E+04  d E =-.326113E-10
 Finite differences progress:
  Degree of freedom:  38/ 42
  Displacement:        2/  2
  Total:              76/ 84
 bond charge predicted
       N       E                     dE             d eps       ncg     rms          rms(c)
DAV:   1    -0.186172252933E+04    0.13574E-02   -0.24167E+00  7680   0.135E+00    0.198E-01
RMM:   2    -0.186172321414E+04   -0.68481E-03   -0.11319E-02  7274   0.884E-02    0.127E-01
RMM:   3    -0.186172312540E+04    0.88740E-04   -0.52595E-04  6610   0.149E-02    0.438E-02
RMM:   4    -0.186172313143E+04   -0.60292E-05   -0.76872E-05  6209   0.604E-03    0.137E-02
RMM:   5    -0.186172313092E+04    0.51296E-06   -0.69428E-06  5189   0.168E-03
  78 F= -.18858444E+04 E0= -.18858444E+04  d E =-.360534E-10
 Finite differences progress:
  Degree of freedom:  39/ 42
  Displacement:        1/  2
  Total:              77/ 84
 bond charge predicted
       N       E                     dE             d eps       ncg     rms          rms(c)
DAV:   1    -0.186172087162E+04    0.22598E-02   -0.48806E+00  7680   0.190E+00    0.526E-01
RMM:   2    -0.186172278672E+04   -0.19151E-02   -0.31931E-02  7571   0.136E-01    0.677E-01
RMM:   3    -0.186172272604E+04    0.60676E-04   -0.82560E-04  6838   0.160E-02    0.682E-01
RMM:   4    -0.186172275656E+04   -0.30520E-04   -0.40618E-04  7300   0.143E-02    0.613E-01
RMM:   5    -0.186172384919E+04   -0.10926E-02   -0.13371E-02  7663   0.769E-02    0.950E-01
RMM:   6    -0.186172299308E+04    0.85611E-03   -0.32611E-04  7297   0.146E-02    0.746E-01
RMM:   7    -0.186172215224E+04    0.84084E-03   -0.27052E-03  7578   0.352E-02    0.135E-01
RMM:   8    -0.186172219555E+04   -0.43311E-04   -0.31560E-04  6885   0.117E-02    0.878E-03
RMM:   9    -0.186172219851E+04   -0.29605E-05   -0.14124E-05  5840   0.300E-03    0.404E-02
RMM:  10    -0.186172222302E+04   -0.24508E-04   -0.12537E-05  5622   0.250E-03    0.180E-02
RMM:  11    -0.186172222723E+04   -0.42051E-05   -0.82177E-07  3605   0.692E-04    0.148E-02
RMM:  12    -0.186172223264E+04   -0.54115E-05   -0.28460E-06  4285   0.120E-03    0.388E-03
RMM:  13    -0.186172224032E+04   -0.76799E-05   -0.11444E-06  3607   0.819E-04    0.909E-03
RMM:  14    -0.186172224726E+04   -0.69462E-05   -0.73969E-07  3731   0.631E-04    0.182E-03
RMM:  15    -0.186172225112E+04   -0.38520E-05   -0.83477E-07  3657   0.666E-04    0.554E-03
RMM:  16    -0.186172225227E+04   -0.11577E-05   -0.14881E-07  2692   0.336E-04    0.188E-03
RMM:  17    -0.186172225334E+04   -0.10636E-05   -0.45427E-08  2216   0.256E-04    0.893E-04
RMM:  18    -0.186172225422E+04   -0.88439E-06   -0.37653E-08  2172   0.252E-04
  79 F= -.18858448E+04 E0= -.18858448E+04  d E =-.589476E-10
 Finite differences progress:
  Degree of freedom:  39/ 42
  Displacement:        2/  2
  Total:              78/ 84
 bond charge predicted
       N       E                     dE             d eps       ncg     rms          rms(c)
DAV:   1    -0.186171976129E+04    0.24920E-02   -0.18786E+00  7680   0.112E+00    0.620E-01
RMM:   2    -0.186172021020E+04   -0.44891E-03   -0.18733E-02  7593   0.111E-01    0.522E-01
RMM:   3    -0.186171967380E+04    0.53640E-03   -0.17230E-03  7351   0.282E-02    0.249E-01
RMM:   4    -0.186171949812E+04    0.17568E-03   -0.10594E-03  7346   0.218E-02    0.127E-01
RMM:   5    -0.186171936666E+04    0.13146E-03   -0.21681E-04  6561   0.986E-03    0.248E-02
RMM:   6    -0.186171939202E+04   -0.25361E-04   -0.18869E-05  6030   0.343E-03    0.671E-03
RMM:   7    -0.186171941487E+04   -0.22848E-04   -0.39570E-06  4912   0.141E-03    0.386E-03
RMM:   8    -0.186171943949E+04   -0.24616E-04   -0.27595E-06  4767   0.108E-03    0.143E-03
RMM:   9    -0.186171946026E+04   -0.20777E-04   -0.22860E-06  4426   0.913E-04    0.118E-03
RMM:  10    -0.186171947681E+04   -0.16542E-04   -0.18385E-06  4215   0.790E-04    0.503E-04
RMM:  11    -0.186171948507E+04   -0.82649E-05   -0.97638E-07  3670   0.591E-04    0.464E-04
RMM:  12    -0.186171949032E+04   -0.52543E-05   -0.52238E-07  3478   0.467E-04    0.238E-04
RMM:  13    -0.186171949193E+04   -0.16054E-05   -0.16516E-07  2811   0.314E-04    0.150E-04
RMM:  14    -0.186171949342E+04   -0.14931E-05   -0.95682E-08  2575   0.286E-04    0.639E-05
RMM:  15    -0.186171949393E+04   -0.50479E-06   -0.36793E-08  2047   0.242E-04
  80 F= -.18858416E+04 E0= -.18858416E+04  d E =-.394850E-11
 Finite differences progress:
  Degree of freedom:  40/ 42
  Displacement:        1/  2
  Total:              79/ 84
 bond charge predicted
       N       E                     dE             d eps       ncg     rms          rms(c)
DAV:   1    -0.186172426926E+04   -0.47758E-02   -0.23303E+00  7680   0.947E-01    0.775E-01
RMM:   2    -0.186172182379E+04    0.24455E-02   -0.16583E-02  7635   0.104E-01    0.520E-01
RMM:   3    -0.186172014695E+04    0.16768E-02   -0.96678E-03  7639   0.662E-02    0.131E-01
RMM:   4    -0.186171988100E+04    0.26595E-03   -0.73901E-04  7213   0.186E-02    0.594E-02
RMM:   5    -0.186171984954E+04    0.31464E-04   -0.66060E-05  6503   0.578E-03    0.341E-02
RMM:   6    -0.186171985403E+04   -0.44964E-05   -0.80137E-05  6726   0.604E-03    0.652E-03
RMM:   7    -0.186171987207E+04   -0.18033E-04   -0.40453E-06  5066   0.158E-03    0.427E-03
RMM:   8    -0.186171991126E+04   -0.39193E-04   -0.76847E-06  5776   0.183E-03    0.244E-03
RMM:   9    -0.186171993341E+04   -0.22148E-04   -0.26980E-06  4690   0.106E-03    0.158E-03
RMM:  10    -0.186171995932E+04   -0.25912E-04   -0.35670E-06  5005   0.112E-03    0.868E-04
RMM:  11    -0.186171996770E+04   -0.83825E-05   -0.59114E-07  3571   0.507E-04    0.551E-04
RMM:  12    -0.186171997891E+04   -0.11211E-04   -0.78987E-07  3890   0.541E-04    0.279E-04
RMM:  13    -0.186171998243E+04   -0.35167E-05   -0.23880E-07  2940   0.335E-04    0.202E-04
RMM:  14    -0.186171998541E+04   -0.29794E-05   -0.16667E-07  2985   0.316E-04    0.146E-04
RMM:  15    -0.186171998653E+04   -0.11260E-05   -0.53115E-08  2152   0.250E-04    0.950E-05
RMM:  16    -0.186171998719E+04   -0.65363E-06   -0.32910E-08  1986   0.239E-04
  81 F= -.18858416E+04 E0= -.18858416E+04  d E =-.249509E-11
 Finite differences progress:
  Degree of freedom:  40/ 42
  Displacement:        2/  2
  Total:              80/ 84
 bond charge predicted
       N       E                     dE             d eps       ncg     rms          rms(c)
DAV:   1    -0.186172004562E+04   -0.59090E-04   -0.10826E+00  7680   0.661E-01    0.656E-01
RMM:   2    -0.186171948582E+04    0.55980E-03   -0.77593E-03  7592   0.744E-02    0.459E-01
RMM:   3    -0.186171895169E+04    0.53413E-03   -0.54753E-03  7608   0.529E-02    0.154E-01
RMM:   4    -0.186171869976E+04    0.25193E-03   -0.51641E-04  6842   0.168E-02    0.417E-02
RMM:   5    -0.186171869363E+04    0.61302E-05   -0.52288E-05  6400   0.541E-03    0.253E-02
RMM:   6    -0.186171870630E+04   -0.12667E-04   -0.25143E-05  6182   0.357E-03    0.865E-03
RMM:   7    -0.186171872165E+04   -0.15350E-04   -0.52712E-06  5261   0.168E-03    0.362E-03
RMM:   8    -0.186171873595E+04   -0.14305E-04   -0.15940E-06  4195   0.897E-04    0.303E-03
RMM:   9    -0.186171875917E+04   -0.23212E-04   -0.41999E-06  5393   0.140E-03    0.157E-03
RMM:  10    -0.186171877198E+04   -0.12818E-04   -0.14326E-06  3999   0.773E-04    0.101E-03
RMM:  11    -0.186171878204E+04   -0.10058E-04   -0.13095E-06  4243   0.721E-04    0.539E-04
RMM:  12    -0.186171878741E+04   -0.53680E-05   -0.54048E-07  3442   0.476E-04    0.276E-04
RMM:  13    -0.186171878988E+04   -0.24718E-05   -0.22377E-07  3066   0.343E-04    0.276E-04
RMM:  14    -0.186171879137E+04   -0.14913E-05   -0.99275E-08  2623   0.283E-04    0.147E-04
RMM:  15    -0.186171879220E+04   -0.82418E-06   -0.53083E-08  2217   0.254E-04
  82 F= -.18858415E+04 E0= -.18858415E+04  d E =-.477327E-12
 Finite differences progress:
  Degree of freedom:  41/ 42
  Displacement:        1/  2
  Total:              81/ 84
 bond charge predicted
       N       E                     dE             d eps       ncg     rms          rms(c)
DAV:   1    -0.186172283741E+04   -0.40460E-02   -0.20859E+00  7680   0.944E-01    0.869E-01
RMM:   2    -0.186172213257E+04    0.70484E-03   -0.17596E-02  7644   0.107E-01    0.554E-01
RMM:   3    -0.186172101781E+04    0.11148E-02   -0.56622E-03  7638   0.570E-02    0.153E-01
RMM:   4    -0.186172086638E+04    0.15143E-03   -0.67337E-04  7398   0.174E-02    0.575E-02
RMM:   5    -0.186172083169E+04    0.34692E-04   -0.96394E-05  6808   0.728E-03    0.421E-02
RMM:   6    -0.186172082416E+04    0.75221E-05   -0.38174E-05  6735   0.468E-03    0.172E-02
RMM:   7    -0.186172083710E+04   -0.12931E-04   -0.17088E-05  6237   0.321E-03    0.478E-03
RMM:   8    -0.186172084923E+04   -0.12138E-04   -0.24161E-06  4747   0.121E-03    0.287E-03
RMM:   9    -0.186172087091E+04   -0.21675E-04   -0.51758E-06  5671   0.161E-03    0.140E-03
RMM:  10    -0.186172088509E+04   -0.14185E-04   -0.17874E-06  4402   0.908E-04    0.117E-03
RMM:  11    -0.186172089642E+04   -0.11329E-04   -0.13539E-06  4199   0.736E-04    0.526E-04
RMM:  12    -0.186172090241E+04   -0.59823E-05   -0.53243E-07  3534   0.476E-04    0.318E-04
RMM:  13    -0.186172090628E+04   -0.38731E-05   -0.28217E-07  3257   0.378E-04    0.178E-04
RMM:  14    -0.186172090830E+04   -0.20228E-05   -0.12274E-07  2725   0.294E-04    0.100E-04
RMM:  15    -0.186172090911E+04   -0.81323E-06   -0.44878E-08  2064   0.243E-04
  83 F= -.18858420E+04 E0= -.18858420E+04  d E =-.207773E-10
 Finite differences progress:
  Degree of freedom:  41/ 42
  Displacement:        2/  2
  Total:              82/ 84
 bond charge predicted
       N       E                     dE             d eps       ncg     rms          rms(c)
DAV:   1    -0.186172075465E+04    0.15365E-03   -0.10643E+00  7680   0.661E-01    0.521E-01
RMM:   2    -0.186172045077E+04    0.30388E-03   -0.88385E-03  7642   0.742E-02    0.320E-01
RMM:   3    -0.186172020008E+04    0.25070E-03   -0.22910E-03  7613   0.346E-02    0.187E-01
RMM:   4    -0.186171990765E+04    0.29243E-03   -0.78967E-04  7475   0.193E-02    0.401E-02
RMM:   5    -0.186171987945E+04    0.28199E-04   -0.72105E-05  6811   0.632E-03    0.285E-02
RMM:   6    -0.186171986029E+04    0.19154E-04   -0.39476E-05  6853   0.474E-03    0.119E-02
RMM:   7    -0.186171985942E+04    0.87163E-06   -0.65935E-06  5622   0.194E-03
  84 F= -.18858415E+04 E0= -.18858415E+04  d E =-.114228E-10
 Finite differences progress:
  Degree of freedom:  42/ 42
  Displacement:        1/  2
  Total:              83/ 84
 bond charge predicted
       N       E                     dE             d eps       ncg     rms          rms(c)
