       N       E                     dE             d eps       ncg     rms          rms(c)
DAV:   1     0.129141550327E+05    0.12914E+05   -0.49476E+05  8480   0.123E+03
DAV:   2     0.610457415599E+03   -0.12304E+05   -0.11929E+05 10752   0.311E+02
DAV:   3    -0.202014086788E+04   -0.26306E+04   -0.26213E+04  8864   0.154E+02
DAV:   4    -0.211362086203E+04   -0.93480E+02   -0.93140E+02  8960   0.338E+01
DAV:   5    -0.211613641155E+04   -0.25155E+01   -0.25126E+01  9696   0.491E+00    0.130E+02
RMM:   6    -0.186578081355E+04    0.25036E+03   -0.11097E+03  7680   0.331E+01    0.533E+01
RMM:   7    -0.186442902481E+04    0.13518E+01   -0.58842E+01  7680   0.660E+00    0.294E+01
RMM:   8    -0.186431785943E+04    0.11117E+00   -0.16408E+01  7680   0.366E+00    0.142E+01
RMM:   9    -0.186217845749E+04    0.21394E+01   -0.53350E+00  7680   0.222E+00    0.282E+00
RMM:  10    -0.186191875211E+04    0.25971E+00   -0.68105E-01  7680   0.804E-01    0.157E+00
RMM:  11    -0.186178221294E+04    0.13654E+00   -0.26031E-01  7680   0.489E-01    0.100E+00
RMM:  12    -0.186171749000E+04    0.64723E-01   -0.10833E-01  7680   0.316E-01    0.340E-01
RMM:  13    -0.186170571044E+04    0.11780E-01   -0.16159E-02  8035   0.105E-01    0.327E-01
RMM:  14    -0.186169633382E+04    0.93766E-02   -0.16768E-02  7680   0.115E-01    0.108E-01
RMM:  15    -0.186170048880E+04   -0.41550E-02   -0.10650E-02  7682   0.823E-02    0.948E-02
RMM:  16    -0.186170949347E+04   -0.90047E-02   -0.65104E-03  7683   0.581E-02    0.775E-02
RMM:  17    -0.186171643880E+04   -0.69453E-02   -0.17436E-03  7690   0.328E-02    0.237E-02
RMM:  18    -0.186172114937E+04   -0.47106E-02   -0.54427E-04  7680   0.175E-02    0.235E-02
RMM:  19    -0.186172368350E+04   -0.25341E-02   -0.32982E-04  7680   0.125E-02    0.110E-02
RMM:  20    -0.186172440392E+04   -0.72042E-03   -0.78512E-05  7077   0.611E-03    0.514E-03
RMM:  21    -0.186172471135E+04   -0.30743E-03   -0.17824E-05  6796   0.312E-03    0.423E-03
RMM:  22    -0.186172488873E+04   -0.17738E-03   -0.68270E-06  6052   0.200E-03    0.209E-03
RMM:  23    -0.186172499205E+04   -0.10333E-03   -0.42559E-06  5763   0.145E-03    0.144E-03
RMM:  24    -0.186172503911E+04   -0.47057E-04   -0.17360E-06  4748   0.908E-04    0.792E-04
RMM:  25    -0.186172505583E+04   -0.16716E-04   -0.76054E-07  3820   0.619E-04    0.418E-04
RMM:  26    -0.186172506513E+04   -0.93016E-05   -0.45133E-07  4002   0.493E-04    0.244E-04
RMM:  27    -0.186172506870E+04   -0.35745E-05   -0.18015E-07  3047   0.348E-04    0.126E-04
RMM:  28    -0.186172507108E+04   -0.23776E-05   -0.97808E-08  2823   0.292E-04    0.106E-04
RMM:  29    -0.186172507185E+04   -0.77502E-06   -0.20965E-08  1761   0.235E-04
   1 F= -.18858470E+04 E0= -.18858470E+04  d E =-.111049E-10
       N       E                     dE             d eps       ncg     rms          rms(c)
DAV:   1    -0.186172099468E+04    0.40764E-02   -0.55345E-01  7680   0.532E-01    0.195E-01
RMM:   2    -0.186172050076E+04    0.49392E-03   -0.36912E-03  7226   0.492E-02    0.259E-01
RMM:   3    -0.186172037127E+04    0.12948E-03   -0.16190E-04  6254   0.673E-03    0.213E-01
RMM:   4    -0.186172031091E+04    0.60364E-04   -0.39851E-04  6697   0.104E-02    0.101E-01
RMM:   5    -0.186172024526E+04    0.65655E-04   -0.18067E-04  6417   0.819E-03    0.142E-02
RMM:   6    -0.186172024492E+04    0.33082E-06   -0.56941E-06  5004   0.211E-03
   2 F= -.18858416E+04 E0= -.18858416E+04  d E =-.231442E-10
       N       E                     dE             d eps       ncg     rms          rms(c)
DAV:   1    -0.186172172796E+04   -0.14827E-02   -0.22077E+00  8000   0.105E+00    0.401E-01
RMM:   2    -0.186171964500E+04    0.20830E-02   -0.14141E-02  7531   0.921E-02    0.501E-01
RMM:   3    -0.186171916066E+04    0.48434E-03   -0.56777E-04  6754   0.131E-02    0.412E-01
RMM:   4    -0.186171890972E+04    0.25094E-03   -0.20675E-03  7109   0.233E-02    0.161E-01
RMM:   5    -0.186171870239E+04    0.20733E-03   -0.54327E-04  6796   0.148E-02    0.265E-02
RMM:   6    -0.186171869289E+04    0.95000E-05   -0.25227E-05  5952   0.387E-03    0.161E-02
RMM:   7    -0.186171869397E+04   -0.10755E-05   -0.14659E-05  5435   0.207E-03    0.541E-03
RMM:   8    -0.186171869707E+04   -0.31074E-05   -0.13912E-06  4147   0.863E-04    0.246E-03
RMM:   9    -0.186171870013E+04   -0.30565E-05   -0.50221E-07  3809   0.565E-04    0.626E-04
RMM:  10    -0.186171870178E+04   -0.16551E-05   -0.15301E-07  2907   0.336E-04    0.432E-04
RMM:  11    -0.186171870429E+04   -0.25073E-05   -0.25178E-07  3314   0.368E-04    0.282E-04
RMM:  12    -0.186171870566E+04   -0.13719E-05   -0.11109E-07  2505   0.289E-04    0.206E-04
RMM:  13    -0.186171870660E+04   -0.93871E-06   -0.12003E-07  2766   0.288E-04
   3 F= -.18858412E+04 E0= -.18858412E+04  d E =-.340708E-11
       N       E                     dE             d eps       ncg     rms          rms(c)
DAV:   1    -0.186172283648E+04   -0.41308E-02   -0.10710E+00  7680   0.691E-01    0.243E-01
RMM:   2    -0.186172192266E+04    0.91381E-03   -0.50837E-03  7314   0.542E-02    0.225E-01
RMM:   3    -0.186172167817E+04    0.24450E-03   -0.40294E-04  6662   0.106E-02    0.145E-01
RMM:   4    -0.186172161292E+04    0.65251E-04   -0.63481E-04  6881   0.129E-02    0.676E-02
RMM:   5    -0.186172157714E+04    0.35781E-04   -0.89242E-05  6139   0.601E-03    0.136E-02
RMM:   6    -0.186172157701E+04    0.12797E-06   -0.55691E-06  4997   0.175E-03
   4 F= -.18858439E+04 E0= -.18858439E+04  d E =-.205153E-10
       N       E                     dE             d eps       ncg     rms          rms(c)
DAV:   1    -0.186172426225E+04   -0.26851E-02   -0.20837E+00  7680   0.935E-01    0.327E-01
RMM:   2    -0.186172251472E+04    0.17475E-02   -0.83488E-03  7371   0.701E-02    0.226E-01
RMM:   3    -0.186172205224E+04    0.46248E-03   -0.13793E-03  7007   0.175E-02    0.110E-01
RMM:   4    -0.186172202834E+04    0.23902E-04   -0.62148E-04  6821   0.122E-02    0.505E-02
RMM:   5    -0.186172201732E+04    0.11014E-04   -0.54685E-05  6072   0.459E-03    0.195E-02
RMM:   6    -0.186172201701E+04    0.31615E-06   -0.84089E-06  5357   0.203E-03
   5 F= -.18858434E+04 E0= -.18858434E+04  d E =-.278677E-10
       N       E                     dE             d eps       ncg     rms          rms(c)
DAV:   1    -0.186172317299E+04   -0.11557E-02   -0.10001E+00  7936   0.583E-01    0.179E-01
RMM:   2    -0.186172281594E+04    0.35705E-03   -0.26055E-03  7019   0.362E-02    0.108E-01
RMM:   3    -0.186172270361E+04    0.11233E-03   -0.58956E-04  6907   0.116E-02    0.277E-02
RMM:   4    -0.186172271133E+04   -0.77223E-05   -0.42784E-05  5889   0.311E-03    0.167E-02
RMM:   5    -0.186172271033E+04    0.10022E-05   -0.46077E-06  4745   0.140E-03    0.681E-03
RMM:   6    -0.186172271026E+04    0.72687E-07   -0.16723E-06  4268   0.100E-03
   6 F= -.18858438E+04 E0= -.18858438E+04  d E =-.492401E-10
       N       E                     dE             d eps       ncg     rms          rms(c)
DAV:   1    -0.186172302221E+04   -0.31188E-03   -0.20799E+00  7744   0.893E-01    0.302E-01
RMM:   2    -0.186172175680E+04    0.12654E-02   -0.77189E-03  7256   0.678E-02    0.186E-01
RMM:   3    -0.186172131099E+04    0.44581E-03   -0.17681E-03  7062   0.196E-02    0.656E-02
RMM:   4    -0.186172132590E+04   -0.14910E-04   -0.30888E-04  6618   0.855E-03    0.276E-02
RMM:   5    -0.186172132269E+04    0.32073E-05   -0.19722E-05  5813   0.287E-03    0.132E-02
RMM:   6    -0.186172132208E+04    0.61553E-06   -0.53995E-06  4921   0.159E-03
   7 F= -.18858440E+04 E0= -.18858440E+04  d E =-.197783E-10
       N       E                     dE             d eps       ncg     rms          rms(c)
DAV:   1    -0.186171994189E+04    0.13808E-02   -0.10552E+00  7936   0.664E-01    0.213E-01
RMM:   2    -0.186171972644E+04    0.21545E-03   -0.71557E-03  6962   0.543E-02    0.131E-01
RMM:   3    -0.186171949578E+04    0.23066E-03   -0.11515E-03  6795   0.156E-02    0.398E-02
RMM:   4    -0.186171950517E+04   -0.93902E-05   -0.12954E-04  6120   0.549E-03    0.169E-02
RMM:   5    -0.186171950429E+04    0.87931E-06   -0.10480E-05  4981   0.192E-03    0.885E-03
RMM:   6    -0.186171950471E+04   -0.42137E-06   -0.28788E-06  4129   0.114E-03
   8 F= -.18858412E+04 E0= -.18858412E+04  d E =-.392361E-10
       N       E                     dE             d eps       ncg     rms          rms(c)
DAV:   1    -0.186172125226E+04   -0.17480E-02   -0.21455E+00  7744   0.801E-01    0.325E-01
RMM:   2    -0.186172058872E+04    0.66354E-03   -0.13159E-02  6603   0.618E-02    0.180E-01
RMM:   3    -0.186172016815E+04    0.42057E-03   -0.26064E-03  6291   0.187E-02    0.460E-02
RMM:   4    -0.186172018117E+04   -0.13015E-04   -0.16769E-04  5657   0.526E-03    0.175E-02
RMM:   5    -0.186172018252E+04   -0.13566E-05   -0.19347E-05  4657   0.197E-03    0.944E-03
RMM:   6    -0.186172018354E+04   -0.10201E-05   -0.44002E-06  4063   0.120E-03    0.526E-03
RMM:   7    -0.186172018455E+04   -0.10069E-05   -0.11759E-06  3475   0.724E-04    0.159E-03
RMM:   8    -0.186172018587E+04   -0.13175E-05   -0.32292E-07  3045   0.431E-04    0.799E-04
RMM:   9    -0.186172018695E+04   -0.10813E-05   -0.10381E-07  2315   0.294E-04    0.476E-04
RMM:  10    -0.186172018877E+04   -0.18178E-05   -0.17371E-07  2690   0.317E-04    0.254E-04
RMM:  11    -0.186172018956E+04   -0.78919E-06   -0.57586E-08  2011   0.250E-04
   9 F= -.18858423E+04 E0= -.18858423E+04  d E =-.331564E-10
       N       E                     dE             d eps       ncg     rms          rms(c)
DAV:   1    -0.186172054610E+04   -0.35733E-03   -0.10877E+00  8000   0.559E-01    0.224E-01
RMM:   2    -0.186172016060E+04    0.38550E-03   -0.54146E-03  6353   0.403E-02    0.131E-01
RMM:   3    -0.186171995644E+04    0.20416E-03   -0.17343E-03  6091   0.148E-02    0.205E-02
RMM:   4    -0.186171995866E+04   -0.22199E-05   -0.56827E-05  5085   0.344E-03    0.120E-02
RMM:   5    -0.186171995813E+04    0.52666E-06   -0.89203E-06  4019   0.144E-03
  10 F= -.18858414E+04 E0= -.18858414E+04  d E =-.340723E-10
       N       E                     dE             d eps       ncg     rms          rms(c)
DAV:   1    -0.186172026342E+04   -0.30476E-03   -0.21800E+00  7680   0.769E-01    0.312E-01
RMM:   2    -0.186171943637E+04    0.82705E-03   -0.96962E-03  6587   0.552E-02    0.185E-01
RMM:   3    -0.186171897454E+04    0.46182E-03   -0.35466E-03  6533   0.214E-02    0.260E-02
RMM:   4    -0.186171897557E+04   -0.10265E-05   -0.10044E-04  5688   0.485E-03    0.178E-02
RMM:   5    -0.186171896955E+04    0.60179E-05   -0.17854E-05  4853   0.212E-03    0.111E-02
RMM:   6    -0.186171896879E+04    0.76197E-06   -0.14954E-05  4806   0.171E-03    0.380E-03
RMM:   7    -0.186171897125E+04   -0.24615E-05   -0.20647E-06  3352   0.717E-04    0.144E-03
RMM:   8    -0.186171897451E+04   -0.32609E-05   -0.63350E-07  2998   0.449E-04    0.702E-04
RMM:   9    -0.186171897734E+04   -0.28221E-05   -0.23027E-07  2478   0.324E-04    0.512E-04
RMM:  10    -0.186171898061E+04   -0.32705E-05   -0.21571E-07  2662   0.322E-04    0.226E-04
RMM:  11    -0.186171898255E+04   -0.19403E-05   -0.11666E-07  2229   0.278E-04    0.166E-04
RMM:  12    -0.186171898478E+04   -0.22328E-05   -0.15321E-07  2455   0.289E-04    0.876E-05
RMM:  13    -0.186171898559E+04   -0.80680E-06   -0.48343E-08  1933   0.242E-04
  11 F= -.18858413E+04 E0= -.18858413E+04  d E =-.471686E-10
       N       E                     dE             d eps       ncg     rms          rms(c)
DAV:   1    -0.186172036455E+04   -0.13798E-02   -0.10759E+00  8128   0.584E-01    0.226E-01
RMM:   2    -0.186171988432E+04    0.48022E-03   -0.49859E-03  6420   0.378E-02    0.130E-01
RMM:   3    -0.186171964575E+04    0.23857E-03   -0.16758E-03  6178   0.143E-02    0.213E-02
RMM:   4    -0.186171964754E+04   -0.17927E-05   -0.56619E-05  4989   0.315E-03    0.124E-02
RMM:   5    -0.186171964730E+04    0.24545E-06   -0.10763E-05  4288   0.153E-03    0.677E-03
RMM:   6    -0.186171964841E+04   -0.11085E-05   -0.16700E-06  3577   0.833E-04    0.332E-03
RMM:   7    -0.186171965013E+04   -0.17226E-05   -0.61901E-07  3264   0.535E-04    0.113E-03
RMM:   8    -0.186171965181E+04   -0.16867E-05   -0.21738E-07  2707   0.351E-04    0.698E-04
RMM:   9    -0.186171965384E+04   -0.20240E-05   -0.12014E-07  2321   0.290E-04    0.351E-04
RMM:  10    -0.186171965629E+04   -0.24534E-05   -0.18684E-07  2807   0.311E-04    0.191E-04
RMM:  11    -0.186171965783E+04   -0.15356E-05   -0.10034E-07  2118   0.265E-04    0.127E-04
RMM:  12    -0.186171965889E+04   -0.10592E-05   -0.86381E-08  2217   0.262E-04    0.712E-05
RMM:  13    -0.186171965926E+04   -0.37671E-06   -0.23917E-08  1698   0.225E-04
  12 F= -.18858412E+04 E0= -.18858412E+04  d E =-.452257E-10
       N       E                     dE             d eps       ncg     rms          rms(c)
DAV:   1    -0.186172020047E+04   -0.54158E-03   -0.21728E+00  7808   0.817E-01    0.317E-01
RMM:   2    -0.186171947154E+04    0.72893E-03   -0.10904E-02  6599   0.572E-02    0.183E-01
RMM:   3    -0.186171905862E+04    0.41293E-03   -0.33877E-03  6396   0.207E-02    0.292E-02
RMM:   4    -0.186171906189E+04   -0.32715E-05   -0.11455E-04  5635   0.492E-03    0.182E-02
RMM:   5    -0.186171906065E+04    0.12423E-05   -0.15935E-05  4916   0.210E-03    0.113E-02
RMM:   6    -0.186171906309E+04   -0.24403E-05   -0.78174E-06  4380   0.136E-03    0.374E-03
RMM:   7    -0.186171906659E+04   -0.35008E-05   -0.11349E-06  3571   0.649E-04    0.148E-03
RMM:   8    -0.186171907061E+04   -0.40266E-05   -0.57213E-07  3337   0.467E-04    0.829E-04
RMM:   9    -0.186171907339E+04   -0.27772E-05   -0.23146E-07  2864   0.343E-04    0.432E-04
RMM:  10    -0.186171907668E+04   -0.32865E-05   -0.36202E-07  3252   0.377E-04    0.224E-04
RMM:  11    -0.186171907784E+04   -0.11593E-05   -0.82542E-08  2129   0.265E-04    0.149E-04
RMM:  12    -0.186171907932E+04   -0.14827E-05   -0.18143E-07  2961   0.312E-04    0.971E-05
RMM:  13    -0.186171907957E+04   -0.25379E-06   -0.19446E-08  1665   0.222E-04
  13 F= -.18858413E+04 E0= -.18858413E+04  d E =-.409697E-10
       N       E                     dE             d eps       ncg     rms          rms(c)
DAV:   1    -0.186171978214E+04   -0.70282E-03   -0.11715E+00  8000   0.599E-01    0.248E-01
RMM:   2    -0.186171934051E+04    0.44163E-03   -0.77543E-03  6691   0.468E-02    0.142E-01
RMM:   3    -0.186171908091E+04    0.25959E-03   -0.18292E-03  6541   0.167E-02    0.415E-02
RMM:   4    -0.186171908076E+04    0.15709E-06   -0.12918E-04  6034   0.595E-03    0.240E-02
RMM:   5    -0.186171907591E+04    0.48493E-05   -0.21689E-05  5244   0.260E-03    0.113E-02
RMM:   6    -0.186171907812E+04   -0.22155E-05   -0.60189E-06  4287   0.130E-03    0.406E-03
RMM:   7    -0.186171908046E+04   -0.23341E-05   -0.10221E-06  3542   0.622E-04    0.158E-03
RMM:   8    -0.186171908292E+04   -0.24653E-05   -0.43489E-07  3157   0.438E-04    0.837E-04
RMM:   9    -0.186171908512E+04   -0.21985E-05   -0.17677E-07  2832   0.334E-04    0.519E-04
RMM:  10    -0.186171908834E+04   -0.32197E-05   -0.28030E-07  3198   0.357E-04    0.258E-04
RMM:  11    -0.186171909022E+04   -0.18785E-05   -0.13122E-07  2285   0.285E-04    0.188E-04
RMM:  12    -0.186171909205E+04   -0.18293E-05   -0.17196E-07  2794   0.305E-04    0.101E-04
RMM:  13    -0.186171909259E+04   -0.54121E-06   -0.39515E-08  1810   0.235E-04
  14 F= -.18858414E+04 E0= -.18858414E+04  d E =-.278328E-10
       N       E                     dE             d eps       ncg     rms          rms(c)
DAV:   1    -0.186172128540E+04   -0.21934E-02   -0.21496E+00  7680   0.825E-01    0.350E-01
RMM:   2    -0.186172063625E+04    0.64915E-03   -0.15721E-02  6994   0.630E-02    0.190E-01
RMM:   3    -0.186172029374E+04    0.34252E-03   -0.27478E-03  6853   0.218E-02    0.748E-02
RMM:   4    -0.186172026365E+04    0.30091E-04   -0.26987E-04  6425   0.924E-03    0.365E-02
RMM:   5    -0.186172024634E+04    0.17310E-04   -0.51215E-05  5852   0.377E-03    0.150E-02
RMM:   6    -0.186172024710E+04   -0.76579E-06   -0.18222E-05  4964   0.196E-03    0.603E-03
RMM:   7    -0.186172024936E+04   -0.22567E-05   -0.16694E-06  3832   0.785E-04    0.312E-03
RMM:   8    -0.186172025403E+04   -0.46713E-05   -0.15011E-06  4054   0.699E-04    0.130E-03
RMM:   9    -0.186172025786E+04   -0.38327E-05   -0.40752E-07  3304   0.426E-04    0.869E-04
RMM:  10    -0.186172026521E+04   -0.73495E-05   -0.82884E-07  3850   0.530E-04    0.547E-04
RMM:  11    -0.186172026898E+04   -0.37679E-05   -0.33803E-07  3117   0.369E-04    0.333E-04
RMM:  12    -0.186172027282E+04   -0.38371E-05   -0.26775E-07  3050   0.344E-04    0.280E-04
RMM:  13    -0.186172027407E+04   -0.12474E-05   -0.71387E-08  2158   0.259E-04    0.104E-04
RMM:  14    -0.186172027510E+04   -0.10328E-05   -0.40088E-08  1940   0.242E-04    0.804E-05
RMM:  15    -0.186172027568E+04   -0.57975E-06   -0.25080E-08  1811   0.234E-04
  15 F= -.18858418E+04 E0= -.18858418E+04  d E =-.690738E-10
       N       E                     dE             d eps       ncg     rms          rms(c)
DAV:   1    -0.186171953044E+04    0.74466E-03   -0.10146E+00  7680   0.567E-01    0.198E-01
RMM:   2    -0.186171957023E+04   -0.39790E-04   -0.50532E-03  6621   0.377E-02    0.117E-01
RMM:   3    -0.186171949120E+04    0.79032E-04   -0.93584E-04  6468   0.125E-02    0.258E-02
RMM:   4    -0.186171949268E+04   -0.14791E-05   -0.52966E-05  5788   0.396E-03    0.158E-02
RMM:   5    -0.186171949048E+04    0.21960E-05   -0.10225E-05  4868   0.178E-03    0.791E-03
RMM:   6    -0.186171949275E+04   -0.22703E-05   -0.71100E-06  4550   0.126E-03    0.260E-03
RMM:   7    -0.186171949426E+04   -0.15119E-05   -0.74088E-07  3288   0.527E-04    0.113E-03
RMM:   8    -0.186171949680E+04   -0.25396E-05   -0.45834E-07  3239   0.431E-04    0.719E-04
RMM:   9    -0.186171949858E+04   -0.17774E-05   -0.18812E-07  2560   0.316E-04    0.454E-04
RMM:  10    -0.186171950153E+04   -0.29491E-05   -0.31232E-07  3312   0.370E-04    0.528E-04
RMM:  11    -0.186171950228E+04   -0.75252E-06   -0.75661E-08  1853   0.254E-04
  16 F= -.18858416E+04 E0= -.18858416E+04  d E =-.646907E-10
       N       E                     dE             d eps       ncg     rms          rms(c)
DAV:   1    -0.186172063713E+04   -0.11356E-02   -0.21324E+00  7680   0.780E-01    0.372E-01
RMM:   2    -0.186171969453E+04    0.94260E-03   -0.13773E-02  6818   0.623E-02    0.197E-01
RMM:   3    -0.186171938695E+04    0.30758E-03   -0.30558E-03  6686   0.218E-02    0.607E-02
RMM:   4    -0.186171936953E+04    0.17418E-04   -0.18918E-04  6238   0.760E-03    0.319E-02
RMM:   5    -0.186171935700E+04    0.12533E-04   -0.55974E-05  5769   0.374E-03    0.134E-02
RMM:   6    -0.186171935897E+04   -0.19703E-05   -0.10167E-05  4730   0.167E-03    0.644E-03
RMM:   7    -0.186171936258E+04   -0.36079E-05   -0.16284E-06  3822   0.777E-04    0.274E-03
RMM:   8    -0.186171936661E+04   -0.40335E-05   -0.96460E-07  3805   0.604E-04    0.114E-03
RMM:   9    -0.186171936944E+04   -0.28279E-05   -0.25359E-07  3042   0.365E-04    0.657E-04
RMM:  10    -0.186171937282E+04   -0.33784E-05   -0.27431E-07  3138   0.357E-04    0.354E-04
RMM:  11    -0.186171937513E+04   -0.23107E-05   -0.15559E-07  2475   0.300E-04    0.220E-04
RMM:  12    -0.186171937759E+04   -0.24626E-05   -0.23483E-07  3083   0.331E-04    0.136E-04
RMM:  13    -0.186171937836E+04   -0.76655E-06   -0.49821E-08  1868   0.242E-04
  17 F= -.18858411E+04 E0= -.18858411E+04  d E =-.302195E-10
       N       E                     dE             d eps       ncg     rms          rms(c)
DAV:   1    -0.186172190329E+04   -0.25257E-02   -0.99943E-01  7744   0.543E-01    0.209E-01
RMM:   2    -0.186172184419E+04    0.59102E-04   -0.51612E-03  6555   0.360E-02    0.119E-01
RMM:   3    -0.186172173201E+04    0.11218E-03   -0.10010E-03  6305   0.123E-02    0.254E-02
RMM:   4    -0.186172173203E+04   -0.17972E-07   -0.45493E-05  5148   0.293E-03    0.140E-02
RMM:   5    -0.186172173342E+04   -0.13907E-05   -0.23662E-05  4771   0.200E-03    0.676E-03
RMM:   6    -0.186172173492E+04   -0.15003E-05   -0.18723E-06  3667   0.926E-04    0.324E-03
RMM:   7    -0.186172173691E+04   -0.19843E-05   -0.12567E-06  3218   0.569E-04    0.136E-03
RMM:   8    -0.186172173976E+04   -0.28554E-05   -0.33637E-07  2905   0.409E-04    0.685E-04
RMM:   9    -0.186172174165E+04   -0.18874E-05   -0.10084E-07  2272   0.283E-04    0.400E-04
RMM:  10    -0.186172174488E+04   -0.32274E-05   -0.26019E-07  3060   0.338E-04    0.281E-04
RMM:  11    -0.186172174685E+04   -0.19721E-05   -0.15613E-07  2373   0.284E-04    0.174E-04
RMM:  12    -0.186172174826E+04   -0.14085E-05   -0.14486E-07  2510   0.283E-04    0.128E-04
RMM:  13    -0.186172174875E+04   -0.49027E-06   -0.43311E-08  1861   0.230E-04
  18 F= -.18858423E+04 E0= -.18858423E+04  d E =-.361319E-10
       N       E                     dE             d eps       ncg     rms          rms(c)
DAV:   1    -0.186171920055E+04    0.25477E-02   -0.20896E+00  7744   0.804E-01    0.302E-01
RMM:   2    -0.186171908542E+04    0.11512E-03   -0.12591E-02  6926   0.589E-02    0.176E-01
RMM:   3    -0.186171888862E+04    0.19681E-03   -0.19956E-03  6693   0.184E-02    0.534E-02
RMM:   4    -0.186171889522E+04   -0.65977E-05   -0.17275E-04  6232   0.708E-03    0.287E-02
RMM:   5    -0.186171888704E+04    0.81802E-05   -0.28324E-05  5677   0.312E-03    0.116E-02
RMM:   6    -0.186171889068E+04   -0.36436E-05   -0.10634E-05  4764   0.156E-03    0.426E-03
RMM:   7    -0.186171889535E+04   -0.46716E-05   -0.14728E-06  3900   0.745E-04    0.192E-03
RMM:   8    -0.186171890050E+04   -0.51452E-05   -0.86263E-07  3742   0.579E-04    0.990E-04
RMM:   9    -0.186171890390E+04   -0.34009E-05   -0.30219E-07  3311   0.397E-04    0.663E-04
RMM:  10    -0.186171890913E+04   -0.52348E-05   -0.46923E-07  3528   0.444E-04    0.360E-04
RMM:  11    -0.186171891200E+04   -0.28683E-05   -0.24409E-07  3053   0.346E-04    0.235E-04
RMM:  12    -0.186171891416E+04   -0.21625E-05   -0.16062E-07  2878   0.308E-04    0.155E-04
RMM:  13    -0.186171891541E+04   -0.12444E-05   -0.91297E-08  2412   0.269E-04    0.803E-05
RMM:  14    -0.186171891606E+04   -0.64967E-06   -0.38020E-08  1946   0.237E-04
  19 F= -.18858422E+04 E0= -.18858422E+04  d E =-.567984E-10
       N       E                     dE             d eps       ncg     rms          rms(c)
DAV:   1    -0.186171843981E+04    0.47560E-03   -0.10105E+00  7680   0.561E-01    0.201E-01
RMM:   2    -0.186171852262E+04   -0.82812E-04   -0.66453E-03  6627   0.428E-02    0.120E-01
RMM:   3    -0.186171843264E+04    0.89983E-04   -0.69737E-04  6237   0.104E-02    0.375E-02
RMM:   4    -0.186171843692E+04   -0.42804E-05   -0.68682E-05  5623   0.359E-03    0.129E-02
RMM:   5    -0.186171843982E+04   -0.29054E-05   -0.84227E-06  4572   0.155E-03    0.700E-03
RMM:   6    -0.186171844261E+04   -0.27916E-05   -0.20846E-06  3882   0.960E-04    0.306E-03
RMM:   7    -0.186171844694E+04   -0.43255E-05   -0.93237E-07  3616   0.619E-04    0.117E-03
RMM:   8    -0.186171845062E+04   -0.36789E-05   -0.35603E-07  3220   0.408E-04    0.678E-04
RMM:   9    -0.186171845390E+04   -0.32849E-05   -0.24145E-07  2845   0.344E-04    0.437E-04
RMM:  10    -0.186171845832E+04   -0.44224E-05   -0.39065E-07  3254   0.388E-04    0.258E-04
RMM:  11    -0.186171846020E+04   -0.18763E-05   -0.14646E-07  2352   0.291E-04    0.177E-04
RMM:  12    -0.186171846182E+04   -0.16191E-05   -0.15300E-07  2754   0.295E-04    0.129E-04
RMM:  13    -0.186171846232E+04   -0.49541E-06   -0.33638E-08  1830   0.228E-04
  20 F= -.18858405E+04 E0= -.18858405E+04  d E =-.537411E-10
       N       E                     dE             d eps       ncg     rms          rms(c)
DAV:   1    -0.186172101647E+04   -0.25546E-02   -0.21772E+00  7680   0.759E-01    0.361E-01
RMM:   2    -0.186171988327E+04    0.11332E-02   -0.11933E-02  6767   0.568E-02    0.197E-01
RMM:   3    -0.186171954576E+04    0.33751E-03   -0.32159E-03  6587   0.210E-02    0.512E-02
RMM:   4    -0.186171953822E+04    0.75329E-05   -0.15322E-04  6074   0.646E-03    0.260E-02
RMM:   5    -0.186171953386E+04    0.43624E-05   -0.39462E-05  5559   0.327E-03    0.128E-02
RMM:   6    -0.186171953520E+04   -0.13395E-05   -0.68448E-06  4343   0.142E-03    0.619E-03
RMM:   7    -0.186171953847E+04   -0.32660E-05   -0.19696E-06  3772   0.772E-04    0.201E-03
RMM:   8    -0.186171954139E+04   -0.29233E-05   -0.63630E-07  3400   0.506E-04    0.955E-04
RMM:   9    -0.186171954366E+04   -0.22691E-05   -0.15571E-07  2621   0.325E-04    0.572E-04
RMM:  10    -0.186171954719E+04   -0.35265E-05   -0.25739E-07  3123   0.353E-04    0.318E-04
RMM:  11    -0.186171954905E+04   -0.18674E-05   -0.94263E-08  2138   0.267E-04    0.201E-04
RMM:  12    -0.186171955133E+04   -0.22792E-05   -0.18153E-07  2800   0.306E-04    0.136E-04
RMM:  13    -0.186171955190E+04   -0.57332E-06   -0.31303E-08  1735   0.228E-04
  21 F= -.18858413E+04 E0= -.18858413E+04  d E =-.387832E-10
       N       E                     dE             d eps       ncg     rms          rms(c)
DAV:   1    -0.186172032516E+04   -0.77382E-03   -0.10326E+00  7680   0.568E-01    0.203E-01
RMM:   2    -0.186172010538E+04    0.21978E-03   -0.39457E-03  6694   0.347E-02    0.120E-01
RMM:   3    -0.186171999667E+04    0.10870E-03   -0.90660E-04  6517   0.129E-02    0.383E-02
RMM:   4    -0.186171999212E+04    0.45496E-05   -0.90836E-05  6060   0.546E-03    0.169E-02
RMM:   5    -0.186171998913E+04    0.29966E-05   -0.86449E-06  4807   0.184E-03    0.814E-03
RMM:   6    -0.186171999143E+04   -0.23034E-05   -0.59061E-06  4320   0.118E-03    0.257E-03
RMM:   7    -0.186171999369E+04   -0.22626E-05   -0.54982E-07  3393   0.517E-04    0.121E-03
RMM:   8    -0.186171999696E+04   -0.32652E-05   -0.38924E-07  3050   0.395E-04    0.668E-04
RMM:   9    -0.186171999970E+04   -0.27475E-05   -0.21139E-07  2769   0.332E-04    0.500E-04
RMM:  10    -0.186172000429E+04   -0.45826E-05   -0.54639E-07  3383   0.423E-04    0.264E-04
RMM:  11    -0.186172000554E+04   -0.12493E-05   -0.97280E-08  2096   0.268E-04    0.169E-04
RMM:  12    -0.186172000717E+04   -0.16305E-05   -0.14379E-07  2574   0.288E-04    0.117E-04
RMM:  13    -0.186172000765E+04   -0.48459E-06   -0.36469E-08  1834   0.232E-04
  22 F= -.18858418E+04 E0= -.18858418E+04  d E =-.212236E-10
       N       E                     dE             d eps       ncg     rms          rms(c)
DAV:   1    -0.186172204425E+04   -0.20371E-02   -0.21726E+00  7680   0.795E-01    0.378E-01
RMM:   2    -0.186171992986E+04    0.21144E-02   -0.13260E-02  7092   0.577E-02    0.196E-01
RMM:   3    -0.186171965591E+04    0.27396E-03   -0.26091E-03  6881   0.220E-02    0.896E-02
RMM:   4    -0.186171960876E+04    0.47149E-04   -0.33839E-04  6564   0.107E-02    0.438E-02
RMM:   5    -0.186171959079E+04    0.17964E-04   -0.74426E-05  6026   0.449E-03    0.122E-02
RMM:   6    -0.186171959010E+04    0.69407E-06   -0.76652E-06  4623   0.152E-03
  23 F= -.18858416E+04 E0= -.18858416E+04  d E =-.442834E-12
       N       E                     dE             d eps       ncg     rms          rms(c)
DAV:   1    -0.186172098110E+04   -0.13903E-02   -0.10211E+00  7776   0.534E-01    0.206E-01
RMM:   2    -0.186172062738E+04    0.35372E-03   -0.40189E-03  6808   0.331E-02    0.115E-01
RMM:   3    -0.186172054606E+04    0.81318E-04   -0.80717E-04  6563   0.124E-02    0.433E-02
RMM:   4    -0.186172054228E+04    0.37785E-05   -0.94194E-05  6104   0.553E-03    0.197E-02
RMM:   5    -0.186172054157E+04    0.71050E-06   -0.14683E-05  5112   0.209E-03    0.775E-03
RMM:   6    -0.186172054354E+04   -0.19705E-05   -0.30101E-06  4079   0.964E-04    0.337E-03
RMM:   7    -0.186172054494E+04   -0.13995E-05   -0.56028E-07  3474   0.534E-04    0.133E-03
RMM:   8    -0.186172054635E+04   -0.14144E-05   -0.27223E-07  3218   0.400E-04    0.595E-04
RMM:   9    -0.186172054735E+04   -0.99230E-06   -0.86480E-08  2540   0.290E-04
  24 F= -.18858425E+04 E0= -.18858425E+04  d E =-.432926E-10
       N       E                     dE             d eps       ncg     rms          rms(c)
DAV:   1    -0.186172103077E+04   -0.48441E-03   -0.21011E+00  7680   0.784E-01    0.300E-01
RMM:   2    -0.186172074656E+04    0.28421E-03   -0.94459E-03  6776   0.521E-02    0.179E-01
RMM:   3    -0.186172047845E+04    0.26811E-03   -0.23646E-03  6528   0.186E-02    0.294E-02
RMM:   4    -0.186172047721E+04    0.12368E-05   -0.72889E-05  5598   0.411E-03    0.167E-02
RMM:   5    -0.186172047480E+04    0.24157E-05   -0.30360E-05  5236   0.244E-03    0.814E-03
RMM:   6    -0.186172047615E+04   -0.13565E-05   -0.32012E-06  4080   0.113E-03    0.410E-03
RMM:   7    -0.186172047962E+04   -0.34706E-05   -0.22001E-06  3541   0.741E-04    0.172E-03
RMM:   8    -0.186172048246E+04   -0.28370E-05   -0.61075E-07  3353   0.495E-04    0.869E-04
RMM:   9    -0.186172048511E+04   -0.26462E-05   -0.23135E-07  2668   0.341E-04    0.592E-04
RMM:  10    -0.186172049019E+04   -0.50868E-05   -0.57691E-07  3451   0.450E-04    0.442E-04
RMM:  11    -0.186172049184E+04   -0.16520E-05   -0.14592E-07  2309   0.295E-04    0.215E-04
RMM:  12    -0.186172049402E+04   -0.21779E-05   -0.21147E-07  2898   0.322E-04    0.186E-04
RMM:  13    -0.186172049465E+04   -0.62797E-06   -0.45348E-08  1849   0.239E-04
  25 F= -.18858423E+04 E0= -.18858423E+04  d E =-.482055E-10
       N       E                     dE             d eps       ncg     rms          rms(c)
DAV:   1    -0.186172474486E+04   -0.42508E-02   -0.60342E-01  7744   0.475E-01    0.172E-01
RMM:   2    -0.186172476190E+04   -0.17040E-04   -0.33850E-03  6609   0.327E-02    0.103E-01
RMM:   3    -0.186172469786E+04    0.64043E-04   -0.56334E-04  6396   0.105E-02    0.316E-02
RMM:   4    -0.186172470176E+04   -0.39045E-05   -0.63551E-05  5876   0.447E-03    0.158E-02
RMM:   5    -0.186172469836E+04    0.33982E-05   -0.74802E-06  4709   0.182E-03    0.732E-03
RMM:   6    -0.186172469949E+04   -0.11287E-05   -0.51205E-06  4373   0.118E-03    0.245E-03
RMM:   7    -0.186172470041E+04   -0.91594E-06   -0.32422E-07  3072   0.458E-04
  26 F= -.18858467E+04 E0= -.18858467E+04  d E =-.484026E-10
       N       E                     dE             d eps       ncg     rms          rms(c)
DAV:   1    -0.186172426759E+04    0.43190E-03   -0.31655E-01  8320   0.338E-01    0.173E-01
RMM:   2    -0.186172426928E+04   -0.16910E-05   -0.16200E-03  6620   0.238E-02    0.103E-01
RMM:   3    -0.186172429127E+04   -0.21985E-04   -0.23145E-04  6629   0.916E-03    0.477E-02
RMM:   4    -0.186172428009E+04    0.11182E-04   -0.71861E-05  5995   0.501E-03    0.127E-02
RMM:   5    -0.186172427961E+04    0.47722E-06   -0.51403E-06  4650   0.169E-03
  27 F= -.18858461E+04 E0= -.18858461E+04  d E =-.472809E-10
       N       E                     dE             d eps       ncg     rms          rms(c)
DAV:   1    -0.186172357474E+04    0.70535E-03   -0.15853E-01  8288   0.241E-01    0.137E-01
RMM:   2    -0.186172349223E+04    0.82504E-04   -0.10770E-03  6734   0.189E-02    0.825E-02
RMM:   3    -0.186172347863E+04    0.13606E-04   -0.94945E-05  6291   0.583E-03    0.442E-02
RMM:   4    -0.186172348270E+04   -0.40677E-05   -0.55143E-05  5939   0.462E-03    0.141E-02
RMM:   5    -0.186172348141E+04    0.12871E-05   -0.68739E-06  4767   0.180E-03    0.527E-03
RMM:   6    -0.186172348200E+04   -0.59225E-06   -0.14378E-06  3920   0.889E-04
  28 F= -.18858453E+04 E0= -.18858453E+04  d E =-.441492E-10
       N       E                     dE             d eps       ncg     rms          rms(c)
DAV:   1    -0.186172396008E+04   -0.47867E-03   -0.32939E-01  8352   0.347E-01    0.267E-01
RMM:   2    -0.186172315992E+04    0.80016E-03   -0.45426E-03  7064   0.369E-02    0.158E-01
RMM:   3    -0.186172297566E+04    0.18427E-03   -0.33782E-04  6892   0.110E-02    0.865E-02
RMM:   4    -0.186172295391E+04    0.21748E-04   -0.24917E-04  6412   0.950E-03    0.336E-02
RMM:   5    -0.186172294502E+04    0.88883E-05   -0.36059E-05  5740   0.399E-03    0.123E-02
RMM:   6    -0.186172294451E+04    0.50780E-06   -0.72261E-06  5340   0.191E-03
  29 F= -.18858449E+04 E0= -.18858449E+04  d E =-.484008E-10
       N       E                     dE             d eps       ncg     rms          rms(c)
DAV:   1    -0.186172287375E+04    0.71271E-04   -0.15055E-01  8288   0.238E-01    0.120E-01
RMM:   2    -0.186172286305E+04    0.10699E-04   -0.54595E-04  6495   0.146E-02    0.713E-02
RMM:   3    -0.186172286996E+04   -0.69132E-05   -0.11575E-04  6112   0.583E-03    0.840E-03
RMM:   4    -0.186172286993E+04    0.28405E-07   -0.57901E-06  4453   0.128E-03
  30 F= -.18858451E+04 E0= -.18858451E+04  d E =-.449080E-10
       N       E                     dE             d eps       ncg     rms          rms(c)
DAV:   1    -0.186172473382E+04   -0.18639E-02   -0.32675E-01  8384   0.352E-01    0.256E-01
RMM:   2    -0.186172408203E+04    0.65179E-03   -0.41570E-03  6987   0.359E-02    0.153E-01
RMM:   3    -0.186172392490E+04    0.15713E-03   -0.32770E-04  6899   0.110E-02    0.840E-02
RMM:   4    -0.186172390046E+04    0.24441E-04   -0.22587E-04  6407   0.910E-03    0.304E-02
RMM:   5    -0.186172389441E+04    0.60447E-05   -0.30769E-05  5766   0.376E-03    0.124E-02
RMM:   6    -0.186172389396E+04    0.45676E-06   -0.66199E-06  5280   0.180E-03
  31 F= -.18858454E+04 E0= -.18858454E+04  d E =-.476949E-10
       N       E                     dE             d eps       ncg     rms          rms(c)
DAV:   1    -0.186172305335E+04    0.84106E-03   -0.17115E-01  8480   0.258E-01    0.205E-01
RMM:   2    -0.186172248729E+04    0.56606E-03   -0.33715E-03  6998   0.325E-02    0.123E-01
RMM:   3    -0.186172235743E+04    0.12986E-03   -0.19784E-04  6767   0.877E-03    0.647E-02
RMM:   4    -0.186172234594E+04    0.11487E-04   -0.15093E-04  6318   0.754E-03    0.289E-02
RMM:   5    -0.186172234042E+04    0.55172E-05   -0.26381E-05  5808   0.350E-03    0.116E-02
RMM:   6    -0.186172233985E+04    0.57615E-06   -0.48236E-06  5074   0.168E-03
  32 F= -.18858448E+04 E0= -.18858448E+04  d E =-.458693E-10
       N       E                     dE             d eps       ncg     rms          rms(c)
DAV:   1    -0.186172418642E+04   -0.18460E-02   -0.34427E-01  8160   0.348E-01    0.269E-01
RMM:   2    -0.186172347818E+04    0.70824E-03   -0.51356E-03  7060   0.395E-02    0.158E-01
RMM:   3    -0.186172330196E+04    0.17621E-03   -0.38501E-04  6956   0.119E-02    0.868E-02
RMM:   4    -0.186172327043E+04    0.31529E-04   -0.26727E-04  6613   0.991E-03    0.333E-02
RMM:   5    -0.186172326150E+04    0.89396E-05   -0.37432E-05  5894   0.421E-03    0.136E-02
RMM:   6    -0.186172326018E+04    0.13124E-05   -0.93449E-06  5540   0.212E-03    0.482E-03
RMM:   7    -0.186172326035E+04   -0.16544E-06   -0.80223E-07  3752   0.699E-04
  33 F= -.18858446E+04 E0= -.18858446E+04  d E =-.462675E-10
       N       E                     dE             d eps       ncg     rms          rms(c)
DAV:   1    -0.186172425859E+04   -0.99841E-03   -0.17412E-01  8256   0.247E-01    0.210E-01
RMM:   2    -0.186172373964E+04    0.51896E-03   -0.31011E-03  7064   0.307E-02    0.125E-01
RMM:   3    -0.186172361332E+04    0.12632E-03   -0.23275E-04  6788   0.941E-03    0.684E-02
RMM:   4    -0.186172359030E+04    0.23017E-04   -0.15598E-04  6368   0.774E-03    0.267E-02
RMM:   5    -0.186172358455E+04    0.57527E-05   -0.24057E-05  5763   0.336E-03    0.109E-02
RMM:   6    -0.186172358352E+04    0.10295E-05   -0.48034E-06  5008   0.158E-03    0.387E-03
RMM:   7    -0.186172358349E+04    0.29686E-07   -0.59680E-07  3559   0.608E-04
  34 F= -.18858464E+04 E0= -.18858464E+04  d E =-.454336E-10
       N       E                     dE             d eps       ncg     rms          rms(c)
DAV:   1    -0.186172507465E+04   -0.14911E-02   -0.31848E-01  7840   0.345E-01    0.215E-01
RMM:   2    -0.186172476532E+04    0.30933E-03   -0.26281E-03  7145   0.301E-02    0.131E-01
RMM:   3    -0.186172469551E+04    0.69808E-04   -0.24812E-04  6811   0.958E-03    0.728E-02
RMM:   4    -0.186172468596E+04    0.95517E-05   -0.15329E-04  6467   0.795E-03    0.234E-02
RMM:   5    -0.186172468237E+04    0.35891E-05   -0.19402E-05  5750   0.306E-03    0.965E-03
RMM:   6    -0.186172468144E+04    0.92751E-06   -0.41631E-06  4912   0.146E-03
  35 F= -.18858457E+04 E0= -.18858457E+04  d E =-.477374E-10
       N       E                     dE             d eps       ncg     rms          rms(c)
DAV:   1    -0.186172461831E+04    0.64060E-04   -0.15225E-01  8000   0.233E-01    0.128E-01
RMM:   2    -0.186172459849E+04    0.19820E-04   -0.60250E-04  6607   0.152E-02    0.753E-02
RMM:   3    -0.186172459903E+04   -0.53860E-06   -0.14470E-04  6378   0.681E-03    0.763E-03
RMM:   4    -0.186172459865E+04    0.37231E-06   -0.58781E-06  4674   0.133E-03
  36 F= -.18858460E+04 E0= -.18858460E+04  d E =-.423516E-10
       N       E                     dE             d eps       ncg     rms          rms(c)
DAV:   1    -0.186172404864E+04    0.55038E-03   -0.31805E-01  7936   0.336E-01    0.216E-01
RMM:   2    -0.186172371655E+04    0.33209E-03   -0.25253E-03  7052   0.297E-02    0.131E-01
RMM:   3    -0.186172363670E+04    0.79854E-04   -0.24936E-04  6812   0.953E-03    0.724E-02
RMM:   4    -0.186172362463E+04    0.12069E-04   -0.16322E-04  6373   0.797E-03    0.230E-02
RMM:   5    -0.186172362072E+04    0.39091E-05   -0.18960E-05  5696   0.295E-03    0.975E-03
RMM:   6    -0.186172361977E+04    0.95110E-06   -0.51670E-06  4967   0.154E-03
  37 F= -.18858461E+04 E0= -.18858461E+04  d E =-.500372E-10
       N       E                     dE             d eps       ncg     rms          rms(c)
DAV:   1    -0.186172361686E+04    0.38598E-05   -0.15971E-01  8192   0.245E-01    0.134E-01
RMM:   2    -0.186172357093E+04    0.45930E-04   -0.12830E-03  6759   0.201E-02    0.821E-02
RMM:   3    -0.186172356145E+04    0.94826E-05   -0.13115E-04  6398   0.661E-03    0.433E-02
RMM:   4    -0.186172356453E+04   -0.30815E-05   -0.65430E-05  6024   0.489E-03    0.124E-02
RMM:   5    -0.186172356365E+04    0.87370E-06   -0.57140E-06  4766   0.169E-03
  38 F= -.18858457E+04 E0= -.18858457E+04  d E =-.497613E-10
       N       E                     dE             d eps       ncg     rms          rms(c)
DAV:   1    -0.186172545452E+04   -0.18900E-02   -0.32179E-01  7584   0.264E-01    0.166E-01
RMM:   2    -0.186172545730E+04   -0.27794E-05   -0.13848E-03  6173   0.172E-02    0.993E-02
RMM:   3    -0.186172547803E+04   -0.20729E-04   -0.32373E-04  5854   0.737E-03    0.111E-02
RMM:   4    -0.186172547700E+04    0.10366E-05   -0.94875E-06  4236   0.165E-03    0.668E-03
RMM:   5    -0.186172547801E+04   -0.10101E-05   -0.51676E-06  3570   0.107E-03    0.347E-03
RMM:   6    -0.186172547992E+04   -0.19161E-05   -0.13077E-06  3285   0.691E-04    0.165E-03
RMM:   7    -0.186172548216E+04   -0.22363E-05   -0.39926E-07  2851   0.408E-04    0.816E-04
RMM:   8    -0.186172548464E+04   -0.24843E-05   -0.26832E-07  2520   0.343E-04    0.661E-04
RMM:   9    -0.186172548593E+04   -0.12839E-05   -0.11759E-07  2122   0.279E-04    0.305E-04
RMM:  10    -0.186172548858E+04   -0.26524E-05   -0.24914E-07  2781   0.326E-04    0.253E-04
RMM:  11    -0.186172548903E+04   -0.45409E-06   -0.27279E-08  1653   0.222E-04
  39 F= -.18858472E+04 E0= -.18858472E+04  d E =-.451953E-10
       N       E                     dE             d eps       ncg     rms          rms(c)
DAV:   1    -0.186172263304E+04    0.28555E-02   -0.16709E-01  7680   0.196E-01    0.177E-01
RMM:   2    -0.186172227281E+04    0.36023E-03   -0.17203E-03  5912   0.187E-02    0.955E-02
RMM:   3    -0.186172223890E+04    0.33911E-04   -0.75838E-04  5677   0.948E-03    0.271E-02
RMM:   4    -0.186172222535E+04    0.13551E-04   -0.27693E-05  4554   0.248E-03    0.121E-02
RMM:   5    -0.186172222750E+04   -0.21498E-05   -0.35896E-05  4501   0.226E-03    0.679E-03
RMM:   6    -0.186172222694E+04    0.55961E-06   -0.10426E-06  3290   0.735E-04
  40 F= -.18858445E+04 E0= -.18858445E+04  d E =-.474096E-10
       N       E                     dE             d eps       ncg     rms          rms(c)
DAV:   1    -0.186172382011E+04   -0.15926E-02   -0.34952E-01  7872   0.285E-01    0.295E-01
RMM:   2    -0.186172270503E+04    0.11151E-02   -0.50440E-03  6322   0.322E-02    0.153E-01
RMM:   3    -0.186172257151E+04    0.13352E-03   -0.20943E-03  6130   0.157E-02    0.462E-02
RMM:   4    -0.186172253293E+04    0.38579E-04   -0.74457E-05  5266   0.406E-03    0.193E-02
RMM:   5    -0.186172253427E+04   -0.13346E-05   -0.81014E-05  5099   0.335E-03    0.106E-02
RMM:   6    -0.186172253229E+04    0.19788E-05   -0.24007E-06  3655   0.102E-03    0.554E-03
RMM:   7    -0.186172253402E+04   -0.17345E-05   -0.14875E-05  3704   0.132E-03    0.444E-03
RMM:   8    -0.186172253414E+04   -0.11502E-06   -0.14523E-06  2984   0.552E-04
  41 F= -.18858441E+04 E0= -.18858441E+04  d E =-.448824E-10
       N       E                     dE             d eps       ncg     rms          rms(c)
DAV:   1    -0.186172446789E+04   -0.19339E-02   -0.17697E-01  7744   0.198E-01    0.221E-01
RMM:   2    -0.186172381540E+04    0.65249E-03   -0.28432E-03  6183   0.243E-02    0.115E-01
RMM:   3    -0.186172373950E+04    0.75897E-04   -0.11799E-03  5820   0.118E-02    0.350E-02
RMM:   4    -0.186172371850E+04    0.21000E-04   -0.44441E-05  4862   0.299E-03    0.137E-02
RMM:   5    -0.186172372025E+04   -0.17438E-05   -0.41560E-05  4752   0.238E-03    0.712E-03
RMM:   6    -0.186172371918E+04    0.10709E-05   -0.13228E-06  3323   0.747E-04    0.372E-03
RMM:   7    -0.186172372018E+04   -0.10017E-05   -0.89681E-06  3528   0.105E-03    0.384E-03
RMM:   8    -0.186172372011E+04    0.67521E-07   -0.94194E-07  2772   0.456E-04
  42 F= -.18858457E+04 E0= -.18858457E+04  d E =-.443350E-10
       N       E                     dE             d eps       ncg     rms          rms(c)
DAV:   1    -0.186172448672E+04   -0.76654E-03   -0.33143E-01  7744   0.271E-01    0.209E-01
RMM:   2    -0.186172419410E+04    0.29262E-03   -0.20850E-03  6272   0.209E-02    0.117E-01
RMM:   3    -0.186172416886E+04    0.25241E-04   -0.85413E-04  6038   0.108E-02    0.271E-02
RMM:   4    -0.186172415492E+04    0.13936E-04   -0.32453E-05  4697   0.256E-03    0.105E-02
RMM:   5    -0.186172415861E+04   -0.36910E-05   -0.35129E-05  4610   0.209E-03    0.544E-03
RMM:   6    -0.186172415977E+04   -0.11535E-05   -0.49038E-06  3325   0.843E-04    0.192E-03
RMM:   7    -0.186172416318E+04   -0.34174E-05   -0.91669E-07  3262   0.534E-04    0.145E-03
RMM:   8    -0.186172416406E+04   -0.87378E-06   -0.14458E-07  2270   0.297E-04
  43 F= -.18858460E+04 E0= -.18858460E+04  d E =-.493847E-10
       N       E                     dE             d eps       ncg     rms          rms(c)
DAV:   1    -0.186172388415E+04    0.27904E-03   -0.16473E-01  7840   0.209E-01    0.134E-01
RMM:   2    -0.186172383392E+04    0.50226E-04   -0.97538E-04  6000   0.152E-02    0.792E-02
RMM:   3    -0.186172383498E+04   -0.10631E-05   -0.26596E-04  5696   0.648E-03    0.103E-02
RMM:   4    -0.186172383425E+04    0.72989E-06   -0.68686E-06  3886   0.132E-03
  44 F= -.18858459E+04 E0= -.18858459E+04  d E =-.472523E-10
       N       E                     dE             d eps       ncg     rms          rms(c)
DAV:   1    -0.186172500233E+04   -0.11674E-02   -0.32822E-01  7712   0.270E-01    0.180E-01
RMM:   2    -0.186172493046E+04    0.71874E-04   -0.16319E-03  5901   0.185E-02    0.106E-01
RMM:   3    -0.186172493810E+04   -0.76374E-05   -0.52345E-04  5717   0.875E-03    0.163E-02
RMM:   4    -0.186172493199E+04    0.61068E-05   -0.13307E-05  4166   0.174E-03    0.848E-03
RMM:   5    -0.186172493284E+04   -0.85097E-06   -0.25586E-05  4190   0.174E-03    0.418E-03
RMM:   6    -0.186172493288E+04   -0.34517E-07   -0.19014E-06  2975   0.596E-04
  45 F= -.18858467E+04 E0= -.18858467E+04  d E =-.459519E-10
       N       E                     dE             d eps       ncg     rms          rms(c)
DAV:   1    -0.186172415120E+04    0.78164E-03   -0.17136E-01  7936   0.198E-01    0.178E-01
RMM:   2    -0.186172383976E+04    0.31144E-03   -0.17962E-03  5838   0.185E-02    0.961E-02
RMM:   3    -0.186172380806E+04    0.31699E-04   -0.73897E-04  5583   0.956E-03    0.262E-02
RMM:   4    -0.186172379537E+04    0.12692E-04   -0.25305E-05  4426   0.236E-03    0.113E-02
RMM:   5    -0.186172379622E+04   -0.85135E-06   -0.32640E-05  4411   0.208E-03    0.612E-03
RMM:   6    -0.186172379571E+04    0.50862E-06   -0.80542E-07  3202   0.651E-04
  46 F= -.18858450E+04 E0= -.18858450E+04  d E =-.460689E-10
       N       E                     dE             d eps       ncg     rms          rms(c)
DAV:   1    -0.186172321402E+04    0.58220E-03   -0.34123E-01  7968   0.281E-01    0.256E-01
RMM:   2    -0.186172250848E+04    0.70553E-03   -0.37650E-03  6104   0.275E-02    0.139E-01
RMM:   3    -0.186172240318E+04    0.10531E-03   -0.15802E-03  5965   0.136E-02    0.392E-02
RMM:   4    -0.186172237063E+04    0.32545E-04   -0.62237E-05  4918   0.346E-03    0.151E-02
RMM:   5    -0.186172237285E+04   -0.22195E-05   -0.54603E-05  4758   0.269E-03    0.816E-03
RMM:   6    -0.186172237185E+04    0.10048E-05   -0.17617E-06  3366   0.804E-04    0.445E-03
RMM:   7    -0.186172237553E+04   -0.36835E-05   -0.16081E-05  3753   0.136E-03    0.554E-03
RMM:   8    -0.186172237595E+04   -0.42282E-06   -0.23109E-06  2924   0.605E-04
  47 F= -.18858450E+04 E0= -.18858450E+04  d E =-.462860E-10
       N       E                     dE             d eps       ncg     rms          rms(c)
DAV:   1    -0.186172320318E+04   -0.82765E-03   -0.16182E-01  7648   0.192E-01    0.116E-01
RMM:   2    -0.186172321546E+04   -0.12283E-04   -0.67364E-04  5702   0.121E-02    0.694E-02
RMM:   3    -0.186172322466E+04   -0.91905E-05   -0.14743E-04  5389   0.527E-03    0.521E-03
RMM:   4    -0.186172322478E+04   -0.12660E-06   -0.35196E-06  3582   0.965E-04
  48 F= -.18858452E+04 E0= -.18858452E+04  d E =-.466532E-10
       N       E                     dE             d eps       ncg     rms          rms(c)
DAV:   1    -0.186172391149E+04   -0.68684E-03   -0.34163E-01  8000   0.281E-01    0.250E-01
RMM:   2    -0.186172332953E+04    0.58197E-03   -0.33998E-03  6225   0.263E-02    0.135E-01
RMM:   3    -0.186172324587E+04    0.83658E-04   -0.15149E-03  6023   0.136E-02    0.364E-02
RMM:   4    -0.186172322004E+04    0.25835E-04   -0.42970E-05  4860   0.310E-03    0.184E-02
RMM:   5    -0.186172322061E+04   -0.57661E-06   -0.94759E-05  5280   0.337E-03    0.986E-03
RMM:   6    -0.186172321837E+04    0.22451E-05   -0.21157E-06  3490   0.906E-04    0.551E-03
RMM:   7    -0.186172321954E+04   -0.11745E-05   -0.17261E-05  3778   0.141E-03    0.486E-03
RMM:   8    -0.186172321908E+04    0.46282E-06   -0.16423E-06  3040   0.566E-04
  49 F= -.18858450E+04 E0= -.18858450E+04  d E =-.458944E-10
       N       E                     dE             d eps       ncg     rms          rms(c)
DAV:   1    -0.186172264591E+04    0.57363E-03   -0.16893E-01  8320   0.213E-01    0.169E-01
RMM:   2    -0.186172254127E+04    0.10463E-03   -0.14151E-03  6061   0.195E-02    0.991E-02
RMM:   3    -0.186172249286E+04    0.48415E-04   -0.34734E-04  5810   0.773E-03    0.106E-02
RMM:   4    -0.186172249223E+04    0.62709E-06   -0.91487E-06  4085   0.149E-03
  50 F= -.18858443E+04 E0= -.18858443E+04  d E =-.492458E-10
       N       E                     dE             d eps       ncg     rms          rms(c)
DAV:   1    -0.186172406528E+04   -0.15724E-02   -0.34631E-01  8224   0.277E-01    0.264E-01
RMM:   2    -0.186172333040E+04    0.73488E-03   -0.39361E-03  6316   0.293E-02    0.142E-01
RMM:   3    -0.186172322739E+04    0.10301E-03   -0.17483E-03  6162   0.144E-02    0.394E-02
RMM:   4    -0.186172319791E+04    0.29475E-04   -0.51189E-05  4900   0.320E-03    0.185E-02
RMM:   5    -0.186172320022E+04   -0.23019E-05   -0.91138E-05  5149   0.324E-03    0.884E-03
RMM:   6    -0.186172319740E+04    0.28140E-05   -0.95821E-06  3607   0.115E-03    0.234E-03
RMM:   7    -0.186172319833E+04   -0.92972E-06   -0.40732E-06  3369   0.873E-04
  51 F= -.18858452E+04 E0= -.18858452E+04  d E =-.437362E-10
       N       E                     dE             d eps       ncg     rms          rms(c)
DAV:   1    -0.186172475903E+04   -0.15616E-02   -0.16529E-01  8192   0.192E-01    0.143E-01
RMM:   2    -0.186172463922E+04    0.11981E-03   -0.10955E-03  5873   0.153E-02    0.805E-02
RMM:   3    -0.186172463595E+04    0.32723E-05   -0.38970E-04  5702   0.735E-03    0.184E-02
RMM:   4    -0.186172462928E+04    0.66726E-05   -0.15472E-05  4203   0.180E-03    0.652E-03
RMM:   5    -0.186172463013E+04   -0.85031E-06   -0.12383E-05  3969   0.132E-03    0.320E-03
RMM:   6    -0.186172463024E+04   -0.10681E-06   -0.74911E-07  2936   0.480E-04
  52 F= -.18858462E+04 E0= -.18858462E+04  d E =-.490173E-10
       N       E                     dE             d eps       ncg     rms          rms(c)
DAV:   1    -0.186172445541E+04    0.17472E-03   -0.32377E-01  8000   0.267E-01    0.169E-01
RMM:   2    -0.186172446204E+04   -0.66286E-05   -0.12997E-03  6130   0.170E-02    0.100E-01
RMM:   3    -0.186172448001E+04   -0.17976E-04   -0.33379E-04  6011   0.754E-03    0.108E-02
RMM:   4    -0.186172447881E+04    0.11991E-05   -0.84898E-06  4225   0.153E-03    0.630E-03
RMM:   5    -0.186172447895E+04   -0.13219E-06   -0.45732E-06  3716   0.103E-03
  53 F= -.18858467E+04 E0= -.18858467E+04  d E =-.451078E-10
       N       E                     dE             d eps       ncg     rms          rms(c)
DAV:   1    -0.186172421415E+04    0.26466E-03   -0.16570E-01  8288   0.189E-01    0.136E-01
RMM:   2    -0.186172415185E+04    0.62301E-04   -0.92766E-04  6146   0.141E-02    0.790E-02
RMM:   3    -0.186172415640E+04   -0.45533E-05   -0.33106E-04  5950   0.712E-03    0.154E-02
RMM:   4    -0.186172415077E+04    0.56317E-05   -0.92149E-06  4082   0.158E-03    0.816E-03
RMM:   5    -0.186172415050E+04    0.27087E-06   -0.18176E-05  4112   0.158E-03    0.434E-03
RMM:   6    -0.186172415051E+04   -0.75670E-08   -0.47190E-07  3130   0.583E-04
  54 F= -.18858451E+04 E0= -.18858451E+04  d E =-.452131E-10
       N       E                     dE             d eps       ncg     rms          rms(c)
DAV:   1    -0.186172315482E+04    0.99568E-03   -0.34004E-01  8192   0.273E-01    0.238E-01
RMM:   2    -0.186172260619E+04    0.54864E-03   -0.30357E-03  6355   0.254E-02    0.131E-01
RMM:   3    -0.186172254201E+04    0.64174E-04   -0.13633E-03  6235   0.131E-02    0.358E-02
RMM:   4    -0.186172251568E+04    0.26335E-04   -0.49125E-05  5284   0.340E-03    0.166E-02
RMM:   5    -0.186172251687E+04   -0.11960E-05   -0.59517E-05  5254   0.301E-03    0.909E-03
RMM:   6    -0.186172251573E+04    0.11401E-05   -0.19891E-06  3604   0.980E-04    0.435E-03
RMM:   7    -0.186172251716E+04   -0.14295E-05   -0.61968E-06  3392   0.915E-04    0.229E-03
RMM:   8    -0.186172251877E+04   -0.16048E-05   -0.54915E-07  2984   0.462E-04    0.111E-03
RMM:   9    -0.186172252033E+04   -0.15619E-05   -0.69020E-07  2490   0.396E-04    0.751E-04
RMM:  10    -0.186172252181E+04   -0.14849E-05   -0.12848E-07  2233   0.292E-04    0.259E-04
RMM:  11    -0.186172252280E+04   -0.98896E-06   -0.10810E-07  2241   0.272E-04
  55 F= -.18858454E+04 E0= -.18858454E+04  d E =-.478868E-10
       N       E                     dE             d eps       ncg     rms          rms(c)
DAV:   1    -0.186172446193E+04   -0.19401E-02   -0.16550E-01  8256   0.220E-01    0.148E-01
RMM:   2    -0.186172437516E+04    0.86771E-04   -0.15088E-03  6304   0.196E-02    0.860E-02
RMM:   3    -0.186172436068E+04    0.14471E-04   -0.44253E-04  6121   0.831E-03    0.195E-02
RMM:   4    -0.186172435346E+04    0.72271E-05   -0.14103E-05  4486   0.190E-03    0.915E-03
RMM:   5    -0.186172435300E+04    0.45862E-06   -0.19538E-05  4513   0.164E-03    0.344E-03
RMM:   6    -0.186172435303E+04   -0.32480E-07   -0.94959E-07  3006   0.512E-04
  56 F= -.18858459E+04 E0= -.18858459E+04  d E =-.463282E-10
       N       E                     dE             d eps       ncg     rms          rms(c)
DAV:   1    -0.186172444676E+04   -0.93757E-04   -0.32358E-01  8032   0.276E-01    0.189E-01
RMM:   2    -0.186172435327E+04    0.93481E-04   -0.16984E-03  6435   0.205E-02    0.109E-01
RMM:   3    -0.186172434136E+04    0.11918E-04   -0.30579E-04  6241   0.827E-03    0.205E-02
RMM:   4    -0.186172434289E+04   -0.15313E-05   -0.20024E-05  5292   0.253E-03    0.738E-03
RMM:   5    -0.186172434224E+04    0.64910E-06   -0.23952E-06  3931   0.102E-03
  57 F= -.18858465E+04 E0= -.18858465E+04  d E =-.468736E-10
       N       E                     dE             d eps       ncg     rms          rms(c)
DAV:   1    -0.186172451983E+04   -0.17694E-03   -0.16202E-01  8384   0.200E-01    0.173E-01
RMM:   2    -0.186172424892E+04    0.27091E-03   -0.16225E-03  6410   0.192E-02    0.938E-02
RMM:   3    -0.186172420607E+04    0.42853E-04   -0.26706E-04  6094   0.692E-03    0.302E-02
RMM:   4    -0.186172420756E+04   -0.14937E-05   -0.31597E-05  5665   0.323E-03    0.114E-02
RMM:   5    -0.186172420631E+04    0.12535E-05   -0.45569E-06  4382   0.140E-03    0.471E-03
RMM:   6    -0.186172420631E+04   -0.39727E-08   -0.14689E-06  3550   0.720E-04
  58 F= -.18858457E+04 E0= -.18858457E+04  d E =-.466104E-10
       N       E                     dE             d eps       ncg     rms          rms(c)
DAV:   1    -0.186172338836E+04    0.81795E-03   -0.33214E-01  8192   0.281E-01    0.242E-01
RMM:   2    -0.186172288085E+04    0.50751E-03   -0.32217E-03  6626   0.270E-02    0.132E-01
RMM:   3    -0.186172279347E+04    0.87383E-04   -0.60672E-04  6325   0.102E-02    0.415E-02
RMM:   4    -0.186172279591E+04   -0.24429E-05   -0.63569E-05  5943   0.466E-03    0.173E-02
RMM:   5    -0.186172279246E+04    0.34543E-05   -0.11303E-05  5091   0.212E-03    0.659E-03
RMM:   6    -0.186172279223E+04    0.22848E-06   -0.32332E-06  3938   0.978E-04
  59 F= -.18858451E+04 E0= -.18858451E+04  d E =-.465337E-10
       N       E                     dE             d eps       ncg     rms          rms(c)
DAV:   1    -0.186172407936E+04   -0.12869E-02   -0.15823E-01  8192   0.198E-01    0.135E-01
RMM:   2    -0.186172404116E+04    0.38191E-04   -0.80202E-04  6270   0.142E-02    0.794E-02
RMM:   3    -0.186172403574E+04    0.54213E-05   -0.17837E-04  6118   0.627E-03    0.947E-03
RMM:   4    -0.186172403579E+04   -0.42215E-07   -0.72388E-06  4655   0.158E-03
  60 F= -.18858449E+04 E0= -.18858449E+04  d E =-.461683E-10
       N       E                     dE             d eps       ncg     rms          rms(c)
DAV:   1    -0.186172256336E+04    0.14724E-02   -0.34005E-01  8256   0.287E-01    0.272E-01
RMM:   2    -0.186172174061E+04    0.82275E-03   -0.40376E-03  6701   0.312E-02    0.146E-01
RMM:   3    -0.186172161271E+04    0.12791E-03   -0.72062E-04  6414   0.111E-02    0.522E-02
RMM:   4    -0.186172160756E+04    0.51481E-05   -0.95266E-05  6114   0.570E-03    0.219E-02
RMM:   5    -0.186172160118E+04    0.63825E-05   -0.16181E-05  5440   0.257E-03    0.764E-03
RMM:   6    -0.186172160066E+04    0.51639E-06   -0.33218E-06  4038   0.104E-03
  61 F= -.18858445E+04 E0= -.18858445E+04  d E =-.467966E-10
       N       E                     dE             d eps       ncg     rms          rms(c)
DAV:   1    -0.186172255459E+04   -0.95341E-03   -0.17030E-01  8288   0.204E-01    0.204E-01
RMM:   2    -0.186172202736E+04    0.52723E-03   -0.28908E-03  6455   0.246E-02    0.105E-01
RMM:   3    -0.186172197942E+04    0.47945E-04   -0.28748E-04  5919   0.682E-03    0.462E-02
RMM:   4    -0.186172197631E+04    0.31016E-05   -0.54177E-05  5693   0.367E-03    0.805E-03
RMM:   5    -0.186172197569E+04    0.62532E-06   -0.36657E-06  3988   0.106E-03
  62 F= -.18858438E+04 E0= -.18858438E+04  d E =-.526828E-10
       N       E                     dE             d eps       ncg     rms          rms(c)
DAV:   1    -0.186172361874E+04   -0.16424E-02   -0.34974E-01  8320   0.261E-01    0.306E-01
RMM:   2    -0.186172242659E+04    0.11922E-02   -0.53799E-03  6624   0.326E-02    0.155E-01
RMM:   3    -0.186172226447E+04    0.16212E-03   -0.84698E-04  6333   0.119E-02    0.607E-02
RMM:   4    -0.186172226407E+04    0.39718E-06   -0.12468E-04  6081   0.633E-03    0.265E-02
RMM:   5    -0.186172225691E+04    0.71624E-05   -0.21399E-05  5463   0.296E-03    0.794E-03
RMM:   6    -0.186172225665E+04    0.25710E-06   -0.42974E-06  3847   0.110E-03
  63 F= -.18858442E+04 E0= -.18858442E+04  d E =-.412724E-10
       N       E                     dE             d eps       ncg     rms          rms(c)
DAV:   1    -0.186172546669E+04   -0.32098E-02   -0.16283E-01  8160   0.183E-01    0.170E-01
RMM:   2    -0.186172520416E+04    0.26254E-03   -0.14629E-03  6233   0.166E-02    0.915E-02
RMM:   3    -0.186172517568E+04    0.28475E-04   -0.22561E-04  5855   0.624E-03    0.316E-02
RMM:   4    -0.186172517923E+04   -0.35519E-05   -0.33566E-05  5579   0.328E-03    0.132E-02
RMM:   5    -0.186172517734E+04    0.18896E-05   -0.52090E-06  4432   0.150E-03    0.403E-03
RMM:   6    -0.186172517739E+04   -0.50422E-07   -0.11465E-06  3312   0.649E-04
  64 F= -.18858467E+04 E0= -.18858467E+04  d E =-.497270E-10
       N       E                     dE             d eps       ncg     rms          rms(c)
DAV:   1    -0.186172393627E+04    0.12411E-02   -0.31911E-01  7776   0.250E-01    0.177E-01
RMM:   2    -0.186172392891E+04    0.73548E-05   -0.16148E-03  6070   0.181E-02    0.105E-01
RMM:   3    -0.186172394251E+04   -0.13592E-04   -0.37753E-04  6087   0.790E-03    0.114E-02
RMM:   4    -0.186172394055E+04    0.19571E-05   -0.10900E-05  4335   0.170E-03    0.618E-03
RMM:   5    -0.186172393990E+04    0.64637E-06   -0.37623E-06  3750   0.996E-04
  65 F= -.18858462E+04 E0= -.18858462E+04  d E =-.432945E-10
       N       E                     dE             d eps       ncg     rms          rms(c)
DAV:   1    -0.186172508320E+04   -0.11427E-02   -0.15954E-01  8224   0.180E-01    0.150E-01
RMM:   2    -0.186172495326E+04    0.12994E-03   -0.10779E-03  6140   0.153E-02    0.846E-02
RMM:   3    -0.186172494572E+04    0.75410E-05   -0.20738E-04  5811   0.600E-03    0.216E-02
RMM:   4    -0.186172494833E+04   -0.26123E-05   -0.18270E-05  5198   0.248E-03    0.919E-03
RMM:   5    -0.186172494735E+04    0.98250E-06   -0.28027E-06  3904   0.110E-03
  66 F= -.18858460E+04 E0= -.18858460E+04  d E =-.464103E-10
       N       E                     dE             d eps       ncg     rms          rms(c)
DAV:   1    -0.186172322930E+04    0.17190E-02   -0.32425E-01  8192   0.255E-01    0.217E-01
RMM:   2    -0.186172291307E+04    0.31623E-03   -0.24130E-03  6398   0.217E-02    0.121E-01
RMM:   3    -0.186172287243E+04    0.40638E-04   -0.35544E-04  6144   0.797E-03    0.373E-02
RMM:   4    -0.186172287614E+04   -0.37099E-05   -0.47827E-05  5918   0.395E-03    0.144E-02
RMM:   5    -0.186172287356E+04    0.25796E-05   -0.62145E-06  4695   0.162E-03    0.486E-03
RMM:   6    -0.186172287431E+04   -0.74782E-06   -0.18502E-06  3647   0.795E-04
  67 F= -.18858457E+04 E0= -.18858457E+04  d E =-.466173E-10
       N       E                     dE             d eps       ncg     rms          rms(c)
DAV:   1    -0.186172485309E+04   -0.19795E-02   -0.16187E-01  8320   0.192E-01    0.140E-01
RMM:   2    -0.186172467678E+04    0.17631E-03   -0.10384E-03  6210   0.138E-02    0.761E-02
RMM:   3    -0.186172467404E+04    0.27398E-05   -0.19296E-04  5794   0.556E-03    0.250E-02
RMM:   4    -0.186172468064E+04   -0.65983E-05   -0.25798E-05  5473   0.281E-03    0.103E-02
RMM:   5    -0.186172467988E+04    0.75922E-06   -0.31985E-06  4134   0.122E-03
  68 F= -.18858460E+04 E0= -.18858460E+04  d E =-.465968E-10
       N       E                     dE             d eps       ncg     rms          rms(c)
DAV:   1    -0.186172431352E+04    0.36712E-03   -0.31988E-01  7712   0.253E-01    0.180E-01
RMM:   2    -0.186172422028E+04    0.93245E-04   -0.15372E-03  6050   0.174E-02    0.105E-01
RMM:   3    -0.186172422816E+04   -0.78830E-05   -0.28853E-04  5709   0.705E-03    0.181E-02
RMM:   4    -0.186172423177E+04   -0.36115E-05   -0.17465E-05  4542   0.203E-03    0.604E-03
RMM:   5    -0.186172423212E+04   -0.34776E-06   -0.16827E-06  3492   0.860E-04
  69 F= -.18858467E+04 E0= -.18858467E+04  d E =-.459718E-10
       N       E                     dE             d eps       ncg     rms          rms(c)
DAV:   1    -0.186172413716E+04    0.94607E-04   -0.16179E-01  7968   0.189E-01    0.170E-01
RMM:   2    -0.186172384648E+04    0.29069E-03   -0.13981E-03  5996   0.167E-02    0.921E-02
RMM:   3    -0.186172381970E+04    0.26778E-04   -0.22910E-04  5588   0.605E-03    0.302E-02
RMM:   4    -0.186172382403E+04   -0.43253E-05   -0.25960E-05  5085   0.273E-03    0.914E-03
RMM:   5    -0.186172382327E+04    0.75263E-06   -0.32127E-06  3986   0.117E-03
  70 F= -.18858454E+04 E0= -.18858454E+04  d E =-.466933E-10
       N       E                     dE             d eps       ncg     rms          rms(c)
DAV:   1    -0.186172373945E+04    0.84576E-04   -0.32836E-01  7744   0.265E-01    0.244E-01
RMM:   2    -0.186172312485E+04    0.61460E-03   -0.30160E-03  6271   0.251E-02    0.131E-01
RMM:   3    -0.186172304311E+04    0.81747E-04   -0.59255E-04  6011   0.933E-03    0.424E-02
RMM:   4    -0.186172304385E+04   -0.74113E-06   -0.56861E-05  5603   0.391E-03    0.136E-02
RMM:   5    -0.186172304228E+04    0.15665E-05   -0.83532E-06  4680   0.175E-03    0.665E-03
RMM:   6    -0.186172304235E+04   -0.66924E-07   -0.22173E-06  3581   0.876E-04
  71 F= -.18858453E+04 E0= -.18858453E+04  d E =-.464265E-10
       N       E                     dE             d eps       ncg     rms          rms(c)
DAV:   1    -0.186172322616E+04   -0.18388E-03   -0.15361E-01  7648   0.181E-01    0.123E-01
RMM:   2    -0.186172320899E+04    0.17169E-04   -0.69183E-04  5793   0.121E-02    0.732E-02
RMM:   3    -0.186172321529E+04   -0.63027E-05   -0.13966E-04  5398   0.506E-03    0.759E-03
RMM:   4    -0.186172321565E+04   -0.35702E-06   -0.50303E-06  3755   0.116E-03
  72 F= -.18858448E+04 E0= -.18858448E+04  d E =-.490250E-10
       N       E                     dE             d eps       ncg     rms          rms(c)
DAV:   1    -0.186172348207E+04   -0.26677E-03   -0.33373E-01  7776   0.266E-01    0.276E-01
RMM:   2    -0.186172255882E+04    0.92325E-03   -0.38105E-03  6464   0.269E-02    0.144E-01
RMM:   3    -0.186172243916E+04    0.11966E-03   -0.60701E-04  6082   0.963E-03    0.517E-02
RMM:   4    -0.186172244527E+04   -0.61054E-05   -0.78696E-05  5869   0.463E-03    0.162E-02
RMM:   5    -0.186172244281E+04    0.24571E-05   -0.10170E-05  4945   0.199E-03    0.760E-03
RMM:   6    -0.186172244261E+04    0.19661E-06   -0.31645E-06  3670   0.990E-04
  73 F= -.18858447E+04 E0= -.18858447E+04  d E =-.441985E-10
       N       E                     dE             d eps       ncg     rms          rms(c)
DAV:   1    -0.186172273656E+04   -0.29375E-03   -0.13090E+00  7712   0.996E-01    0.244E-01
RMM:   2    -0.186172313572E+04   -0.39916E-03   -0.95404E-03  7333   0.789E-02    0.297E-01
RMM:   3    -0.186172307186E+04    0.63854E-04   -0.29922E-04  6509   0.102E-02    0.270E-01
RMM:   4    -0.186172308729E+04   -0.15424E-04   -0.25755E-04  6701   0.112E-02    0.148E-01
RMM:   5    -0.186172298591E+04    0.10138E-03   -0.35378E-04  6646   0.124E-02    0.408E-02
RMM:   6    -0.186172298360E+04    0.23138E-05   -0.96981E-06  5352   0.237E-03    0.324E-02
RMM:   7    -0.186172298499E+04   -0.13949E-05   -0.95170E-06  5201   0.220E-03    0.101E-02
RMM:   8    -0.186172298983E+04   -0.48347E-05   -0.33190E-06  4726   0.130E-03    0.219E-03
RMM:   9    -0.186172299200E+04   -0.21686E-05   -0.31591E-07  3227   0.504E-04    0.130E-03
RMM:  10    -0.186172299555E+04   -0.35536E-05   -0.37991E-07  3447   0.487E-04    0.832E-04
RMM:  11    -0.186172299765E+04   -0.21001E-05   -0.19247E-07  3071   0.358E-04    0.118E-03
RMM:  12    -0.186172299975E+04   -0.20979E-05   -0.16184E-07  3012   0.326E-04    0.312E-04
RMM:  13    -0.186172300119E+04   -0.14388E-05   -0.13908E-07  2819   0.312E-04    0.286E-04
RMM:  14    -0.186172300178E+04   -0.59535E-06   -0.36280E-08  1928   0.237E-04
  74 F= -.18858456E+04 E0= -.18858456E+04  d E =-.561241E-10
       N       E                     dE             d eps       ncg     rms          rms(c)
DAV:   1    -0.186172195067E+04    0.10505E-02   -0.48839E+00  7680   0.190E+00    0.432E-01
RMM:   2    -0.186172408008E+04   -0.21294E-02   -0.31599E-02  7557   0.145E-01    0.546E-01
RMM:   3    -0.186172399029E+04    0.89790E-04   -0.96355E-04  6775   0.179E-02    0.542E-01
RMM:   4    -0.186172411277E+04   -0.12248E-03   -0.53052E-04  7096   0.158E-02    0.454E-01
RMM:   5    -0.186172388731E+04    0.22547E-03   -0.40311E-03  7525   0.424E-02    0.379E-01
RMM:   6    -0.186172370537E+04    0.18193E-03   -0.12484E-04  6898   0.906E-03    0.275E-01
RMM:   7    -0.186172359429E+04    0.11108E-03   -0.25963E-04  6964   0.110E-02    0.110E-01
RMM:   8    -0.186172360580E+04   -0.11510E-04   -0.11117E-04  6449   0.708E-03    0.168E-02
RMM:   9    -0.186172361762E+04   -0.11820E-04   -0.59209E-06  5239   0.179E-03    0.765E-03
RMM:  10    -0.186172362892E+04   -0.11300E-04   -0.11713E-06  4012   0.806E-04    0.682E-03
RMM:  11    -0.186172364406E+04   -0.15136E-04   -0.30309E-06  4842   0.117E-03    0.869E-03
RMM:  12    -0.186172364932E+04   -0.52611E-05   -0.56727E-07  3446   0.569E-04    0.525E-03
RMM:  13    -0.186172365651E+04   -0.71919E-05   -0.15313E-06  4177   0.837E-04    0.278E-03
RMM:  14    -0.186172365929E+04   -0.27847E-05   -0.33512E-07  3156   0.423E-04    0.109E-03
RMM:  15    -0.186172366088E+04   -0.15865E-05   -0.14988E-07  2834   0.316E-04    0.104E-03
RMM:  16    -0.186172366185E+04   -0.96622E-06   -0.82115E-08  2600   0.283E-04
  75 F= -.18858448E+04 E0= -.18858448E+04  d E =-.386035E-10
       N       E                     dE             d eps       ncg     rms          rms(c)
DAV:   1    -0.186172072685E+04    0.29340E-02   -0.24684E+00  7680   0.135E+00    0.449E-01
RMM:   2    -0.186172197186E+04   -0.12450E-02   -0.19982E-02  7522   0.107E-01    0.595E-01
RMM:   3    -0.186172193198E+04    0.39881E-04   -0.49457E-04  6693   0.130E-02    0.607E-01
RMM:   4    -0.186172204621E+04   -0.11422E-03   -0.19507E-04  7127   0.999E-03    0.613E-01
RMM:   5    -0.186172422472E+04   -0.21785E-02   -0.37722E-03  7648   0.417E-02    0.129E+00
RMM:   6    -0.186172194057E+04    0.22841E-02   -0.97182E-03  7664   0.694E-02    0.473E-01
RMM:   7    -0.186172260707E+04   -0.66650E-03   -0.44219E-03  7562   0.426E-02    0.875E-01
RMM:   8    -0.186172168129E+04    0.92578E-03   -0.58356E-03  7655   0.541E-02    0.285E-01
RMM:   9    -0.186172161908E+04    0.62212E-04   -0.62801E-05  6331   0.660E-03    0.128E-01
RMM:  10    -0.186172158228E+04    0.36797E-04   -0.15450E-04  6897   0.886E-03    0.385E-02
RMM:  11    -0.186172159347E+04   -0.11187E-04   -0.10957E-05  5660   0.264E-03    0.249E-02
RMM:  12    -0.186172160055E+04   -0.70765E-05   -0.55994E-07  3706   0.660E-04    0.210E-02
RMM:  13    -0.186172160822E+04   -0.76771E-05   -0.14047E-06  4064   0.825E-04    0.134E-02
RMM:  14    -0.186172161229E+04   -0.40666E-05   -0.25449E-07  3221   0.393E-04    0.141E-02
RMM:  15    -0.186172161779E+04   -0.55034E-05   -0.14189E-06  4234   0.864E-04    0.706E-04
RMM:  16    -0.186172161938E+04   -0.15837E-05   -0.26796E-07  3194   0.429E-04    0.232E-03
RMM:  17    -0.186172162019E+04   -0.81876E-06   -0.45616E-08  2186   0.250E-04
  76 F= -.18858441E+04 E0= -.18858441E+04  d E =-.655283E-10
       N       E                     dE             d eps       ncg     rms          rms(c)
DAV:   1    -0.186172189581E+04   -0.27643E-03   -0.48762E+00  7680   0.191E+00    0.519E-01
RMM:   2    -0.186172434964E+04   -0.24538E-02   -0.35765E-02  7554   0.155E-01    0.651E-01
RMM:   3    -0.186172428915E+04    0.60487E-04   -0.10140E-03  6898   0.189E-02    0.662E-01
RMM:   4    -0.186172442736E+04   -0.13821E-03   -0.29463E-04  6906   0.119E-02    0.662E-01
RMM:   5    -0.186172405544E+04    0.37193E-03   -0.13051E-03  7554   0.254E-02    0.480E-01
RMM:   6    -0.186172930341E+04   -0.52480E-02   -0.18383E-02  7675   0.929E-02    0.190E+00
RMM:   7    -0.186172429420E+04    0.50092E-02   -0.67015E-03  7658   0.582E-02    0.608E-01
RMM:   8    -0.186172384568E+04    0.44852E-03   -0.35927E-03  7642   0.415E-02    0.959E-02
RMM:   9    -0.186172383438E+04    0.11296E-04   -0.64631E-05  6400   0.680E-03    0.351E-02
RMM:  10    -0.186172384147E+04   -0.70892E-05   -0.39400E-06  5086   0.164E-03    0.352E-02
RMM:  11    -0.186172385937E+04   -0.17898E-04   -0.10832E-05  5568   0.234E-03    0.192E-02
RMM:  12    -0.186172386865E+04   -0.92848E-05   -0.94353E-07  3894   0.712E-04    0.182E-02
RMM:  13    -0.186172387465E+04   -0.59919E-05   -0.77850E-07  3560   0.625E-04    0.114E-02
RMM:  14    -0.186172388116E+04   -0.65110E-05   -0.97722E-07  4111   0.696E-04    0.432E-03
RMM:  15    -0.186172388641E+04   -0.52494E-05   -0.91944E-07  3735   0.640E-04    0.237E-03
RMM:  16    -0.186172388757E+04   -0.11653E-05   -0.17390E-07  2805   0.336E-04    0.102E-03
RMM:  17    -0.186172388852E+04   -0.94708E-06   -0.72863E-08  2385   0.269E-04
  77 F= -.18858452E+04 E0= -.18858452E+04  d E =-.326557E-10
       N       E                     dE             d eps       ncg     rms          rms(c)
DAV:   1    -0.186172250264E+04    0.13849E-02   -0.24166E+00  7680   0.135E+00    0.197E-01
RMM:   2    -0.186172321499E+04   -0.71235E-03   -0.11560E-02  7279   0.893E-02    0.128E-01
RMM:   3    -0.186172312526E+04    0.89724E-04   -0.51791E-04  6595   0.147E-02    0.459E-02
RMM:   4    -0.186172313138E+04   -0.61173E-05   -0.80773E-05  6219   0.622E-03    0.125E-02
RMM:   5    -0.186172313137E+04    0.73196E-08   -0.65541E-06  5172   0.164E-03
  78 F= -.18858444E+04 E0= -.18858444E+04  d E =-.360968E-10
       N       E                     dE             d eps       ncg     rms          rms(c)
DAV:   1    -0.186172088660E+04    0.22448E-02   -0.48812E+00  7680   0.190E+00    0.526E-01
RMM:   2    -0.186172278967E+04   -0.19031E-02   -0.31842E-02  7571   0.136E-01    0.678E-01
RMM:   3    -0.186172272121E+04    0.68455E-04   -0.82095E-04  6841   0.160E-02    0.681E-01
RMM:   4    -0.186172276603E+04   -0.44817E-04   -0.49718E-04  7357   0.158E-02    0.591E-01
RMM:   5    -0.186172326977E+04   -0.50374E-03   -0.10188E-02  7633   0.670E-02    0.774E-01
RMM:   6    -0.186172270093E+04    0.56883E-03   -0.21631E-04  7113   0.120E-02    0.610E-01
RMM:   7    -0.186172215621E+04    0.54473E-03   -0.18423E-03  7532   0.290E-02    0.115E-01
RMM:   8    -0.186172218959E+04   -0.33386E-04   -0.16798E-04  6640   0.859E-03    0.200E-02
RMM:   9    -0.186172219935E+04   -0.97541E-05   -0.49622E-06  5237   0.180E-03    0.280E-02
RMM:  10    -0.186172221901E+04   -0.19662E-04   -0.32203E-06  4817   0.128E-03    0.257E-03
RMM:  11    -0.186172222988E+04   -0.10874E-04   -0.37430E-06  4845   0.133E-03    0.165E-02
RMM:  12    -0.186172223230E+04   -0.24203E-05   -0.11030E-06  3486   0.827E-04    0.307E-03
RMM:  13    -0.186172224037E+04   -0.80699E-05   -0.74052E-07  3729   0.643E-04    0.678E-04
RMM:  14    -0.186172224757E+04   -0.71984E-05   -0.46850E-07  3364   0.463E-04    0.388E-03
RMM:  15    -0.186172225144E+04   -0.38665E-05   -0.67250E-07  3576   0.582E-04    0.200E-03
RMM:  16    -0.186172225280E+04   -0.13640E-05   -0.91217E-08  2492   0.289E-04    0.199E-03
RMM:  17    -0.186172225378E+04   -0.97443E-06   -0.62621E-08  2372   0.273E-04
  79 F= -.18858448E+04 E0= -.18858448E+04  d E =-.589670E-10
       N       E                     dE             d eps       ncg     rms          rms(c)
DAV:   1    -0.186171977225E+04    0.24806E-02   -0.18788E+00  7680   0.112E+00    0.619E-01
RMM:   2    -0.186172020795E+04   -0.43571E-03   -0.18614E-02  7594   0.111E-01    0.522E-01
RMM:   3    -0.186171967201E+04    0.53595E-03   -0.17043E-03  7347   0.281E-02    0.251E-01
RMM:   4    -0.186171949856E+04    0.17345E-03   -0.10586E-03  7349   0.218E-02    0.127E-01
RMM:   5    -0.186171936655E+04    0.13200E-03   -0.21811E-04  6560   0.988E-03    0.248E-02
RMM:   6    -0.186171939210E+04   -0.25547E-04   -0.18936E-05  6029   0.343E-03    0.666E-03
RMM:   7    -0.186171941488E+04   -0.22779E-04   -0.38866E-06  4904   0.139E-03    0.387E-03
RMM:   8    -0.186171944040E+04   -0.25517E-04   -0.29518E-06  4833   0.111E-03    0.147E-03
RMM:   9    -0.186171946046E+04   -0.20058E-04   -0.21486E-06  4329   0.887E-04    0.112E-03
RMM:  10    -0.186171947810E+04   -0.17648E-04   -0.21516E-06  4456   0.842E-04    0.484E-04
RMM:  11    -0.186171948536E+04   -0.72548E-05   -0.80695E-07  3548   0.549E-04    0.451E-04
RMM:  12    -0.186171949050E+04   -0.51399E-05   -0.49467E-07  3501   0.458E-04    0.240E-04
RMM:  13    -0.186171949195E+04   -0.14502E-05   -0.14268E-07  2730   0.302E-04    0.141E-04
RMM:  14    -0.186171949342E+04   -0.14772E-05   -0.92773E-08  2564   0.284E-04    0.632E-05
RMM:  15    -0.186171949394E+04   -0.51322E-06   -0.35345E-08  2021   0.241E-04
  80 F= -.18858416E+04 E0= -.18858416E+04  d E =-.394835E-11
       N       E                     dE             d eps       ncg     rms          rms(c)
DAV:   1    -0.186172426820E+04   -0.47748E-02   -0.23302E+00  7680   0.947E-01    0.774E-01
RMM:   2    -0.186172182388E+04    0.24443E-02   -0.16589E-02  7635   0.104E-01    0.520E-01
RMM:   3    -0.186172014753E+04    0.16763E-02   -0.96840E-03  7639   0.662E-02    0.132E-01
RMM:   4    -0.186171988117E+04    0.26636E-03   -0.74038E-04  7211   0.186E-02    0.594E-02
RMM:   5    -0.186171984949E+04    0.31684E-04   -0.66329E-05  6504   0.579E-03    0.341E-02
RMM:   6    -0.186171985406E+04   -0.45782E-05   -0.80339E-05  6726   0.604E-03    0.651E-03
RMM:   7    -0.186171987207E+04   -0.18001E-04   -0.40366E-06  5064   0.157E-03    0.427E-03
RMM:   8    -0.186171991127E+04   -0.39205E-04   -0.76818E-06  5771   0.183E-03    0.244E-03
RMM:   9    -0.186171993342E+04   -0.22149E-04   -0.27043E-06  4681   0.106E-03    0.158E-03
RMM:  10    -0.186171995935E+04   -0.25934E-04   -0.35806E-06  5011   0.112E-03    0.869E-04
RMM:  11    -0.186171996784E+04   -0.84824E-05   -0.59456E-07  3582   0.509E-04    0.542E-04
RMM:  12    -0.186171997891E+04   -0.11077E-04   -0.78569E-07  3876   0.538E-04    0.278E-04
RMM:  13    -0.186171998252E+04   -0.36015E-05   -0.24505E-07  2976   0.337E-04    0.203E-04
RMM:  14    -0.186171998543E+04   -0.29111E-05   -0.16319E-07  2933   0.313E-04    0.149E-04
RMM:  15    -0.186171998652E+04   -0.10932E-05   -0.50627E-08  2141   0.249E-04    0.922E-05
RMM:  16    -0.186171998719E+04   -0.67234E-06   -0.34354E-08  1988   0.241E-04
  81 F= -.18858416E+04 E0= -.18858416E+04  d E =-.249481E-11
       N       E                     dE             d eps       ncg     rms          rms(c)
DAV:   1    -0.186172004550E+04   -0.58982E-04   -0.10826E+00  7680   0.661E-01    0.656E-01
RMM:   2    -0.186171948588E+04    0.55962E-03   -0.77605E-03  7594   0.745E-02    0.459E-01
RMM:   3    -0.186171895234E+04    0.53354E-03   -0.54766E-03  7608   0.529E-02    0.154E-01
RMM:   4    -0.186171869975E+04    0.25259E-03   -0.51685E-04  6840   0.168E-02    0.417E-02
RMM:   5    -0.186171869363E+04    0.61166E-05   -0.52273E-05  6400   0.541E-03    0.253E-02
RMM:   6    -0.186171870630E+04   -0.12666E-04   -0.25183E-05  6184   0.357E-03    0.866E-03
RMM:   7    -0.186171872165E+04   -0.15352E-04   -0.52924E-06  5263   0.169E-03    0.362E-03
RMM:   8    -0.186171873594E+04   -0.14293E-04   -0.15898E-06  4208   0.896E-04    0.302E-03
RMM:   9    -0.186171875917E+04   -0.23226E-04   -0.42037E-06  5384   0.140E-03    0.156E-03
RMM:  10    -0.186171877201E+04   -0.12841E-04   -0.14402E-06  4017   0.775E-04    0.101E-03
RMM:  11    -0.186171878205E+04   -0.10037E-04   -0.13068E-06  4210   0.720E-04    0.540E-04
RMM:  12    -0.186171878741E+04   -0.53633E-05   -0.54153E-07  3483   0.478E-04    0.278E-04
RMM:  13    -0.186171878987E+04   -0.24610E-05   -0.22310E-07  3053   0.342E-04    0.277E-04
RMM:  14    -0.186171879137E+04   -0.14978E-05   -0.99419E-08  2611   0.283E-04    0.147E-04
RMM:  15    -0.186171879220E+04   -0.82715E-06   -0.52596E-08  2206   0.255E-04
  82 F= -.18858415E+04 E0= -.18858415E+04  d E =-.477319E-12
       N       E                     dE             d eps       ncg     rms          rms(c)
DAV:   1    -0.186172283693E+04   -0.40456E-02   -0.20859E+00  7680   0.944E-01    0.869E-01
RMM:   2    -0.186172213259E+04    0.70434E-03   -0.17601E-02  7644   0.107E-01    0.554E-01
RMM:   3    -0.186172101779E+04    0.11148E-02   -0.56609E-03  7638   0.570E-02    0.153E-01
RMM:   4    -0.186172086642E+04    0.15137E-03   -0.67397E-04  7398   0.174E-02    0.575E-02
RMM:   5    -0.186172083170E+04    0.34717E-04   -0.96315E-05  6806   0.728E-03    0.421E-02
RMM:   6    -0.186172082417E+04    0.75327E-05   -0.38119E-05  6733   0.468E-03    0.172E-02
RMM:   7    -0.186172083710E+04   -0.12925E-04   -0.17164E-05  6239   0.322E-03    0.478E-03
RMM:   8    -0.186172084924E+04   -0.12139E-04   -0.24174E-06  4752   0.121E-03    0.287E-03
RMM:   9    -0.186172087091E+04   -0.21678E-04   -0.51785E-06  5668   0.161E-03    0.140E-03
RMM:  10    -0.186172088509E+04   -0.14174E-04   -0.17870E-06  4411   0.909E-04    0.117E-03
RMM:  11    -0.186172089643E+04   -0.11340E-04   -0.13564E-06  4191   0.736E-04    0.526E-04
RMM:  12    -0.186172090241E+04   -0.59829E-05   -0.53148E-07  3547   0.476E-04    0.318E-04
RMM:  13    -0.186172090627E+04   -0.38609E-05   -0.28174E-07  3265   0.377E-04    0.179E-04
RMM:  14    -0.186172090831E+04   -0.20428E-05   -0.12327E-07  2726   0.294E-04    0.994E-05
RMM:  15    -0.186172090911E+04   -0.79881E-06   -0.44091E-08  2053   0.242E-04
  83 F= -.18858420E+04 E0= -.18858420E+04  d E =-.207771E-10
       N       E                     dE             d eps       ncg     rms          rms(c)
DAV:   1    -0.186172075525E+04    0.15306E-03   -0.10643E+00  7680   0.661E-01    0.522E-01
RMM:   2    -0.186172045079E+04    0.30446E-03   -0.88315E-03  7642   0.742E-02    0.320E-01
RMM:   3    -0.186172020032E+04    0.25047E-03   -0.22923E-03  7613   0.346E-02    0.187E-01
RMM:   4    -0.186171990757E+04    0.29275E-03   -0.78846E-04  7476   0.193E-02    0.401E-02
RMM:   5    -0.186171987945E+04    0.28122E-04   -0.72071E-05  6810   0.631E-03    0.285E-02
RMM:   6    -0.186171986024E+04    0.19205E-04   -0.39581E-05  6856   0.475E-03    0.118E-02
RMM:   7    -0.186171985942E+04    0.82127E-06   -0.65669E-06  5621   0.194E-03
  84 F= -.18858415E+04 E0= -.18858415E+04  d E =-.114218E-10
       N       E                     dE             d eps       ncg     rms          rms(c)
DAV:   1    -0.186172332316E+04   -0.34629E-02   -0.21201E+00  7680   0.945E-01    0.740E-01
RMM:   2    -0.186172194741E+04    0.13758E-02   -0.24768E-02  7660   0.128E-01    0.529E-01
RMM:   3    -0.186172079738E+04    0.11500E-02   -0.46855E-03  7625   0.496E-02    0.279E-01
RMM:   4    -0.186171988951E+04    0.90787E-03   -0.23305E-03  7647   0.354E-02    0.704E-02
RMM:   5    -0.186171981771E+04    0.71799E-04   -0.17553E-04  7328   0.990E-03    0.305E-02
RMM:   6    -0.186171981708E+04    0.63333E-06   -0.89099E-05  7259   0.723E-03    0.127E-02
RMM:   7    -0.186171983867E+04   -0.21586E-04   -0.25334E-05  6586   0.373E-03    0.629E-03
RMM:   8    -0.186171987387E+04   -0.35203E-04   -0.13335E-05  6221   0.251E-03    0.374E-03
RMM:   9    -0.186171991490E+04   -0.41032E-04   -0.85261E-06  5823   0.177E-03    0.237E-03
RMM:  10    -0.186171995071E+04   -0.35810E-04   -0.59145E-06  5448   0.145E-03    0.131E-03
RMM:  11    -0.186171997146E+04   -0.20750E-04   -0.19812E-06  4173   0.836E-04    0.883E-04
RMM:  12    -0.186171998652E+04   -0.15055E-04   -0.12693E-06  4397   0.725E-04    0.596E-04
RMM:  13    -0.186171999181E+04   -0.52944E-05   -0.40374E-07  3229   0.433E-04    0.348E-04
RMM:  14    -0.186171999540E+04   -0.35876E-05   -0.23911E-07  3259   0.372E-04    0.245E-04
RMM:  15    -0.186171999714E+04   -0.17408E-05   -0.12734E-07  2926   0.315E-04    0.121E-04
RMM:  16    -0.186171999792E+04   -0.77557E-06   -0.36488E-08  2003   0.249E-04
  85 F= -.18858421E+04 E0= -.18858421E+04  d E =-.105005E-11
