<?xml version="1.0" encoding="ISO-8859-1"?>
<modeling>
 <generator>
  <i name="program" type="string">vasp </i>
  <i name="version" type="string">5.4.4.18Apr17-6-g9f103f2a35  </i>
  <i name="subversion" type="string">(build Oct 20 2021 08:33:53) complex            parallel </i>
  <i name="platform" type="string">LinuxGNU </i>
  <i name="date" type="string">2025 03 29 </i>
  <i name="time" type="string">13:11:31 </i>
 </generator>
 <incar>
  <i type="string" name="PREC">normal</i>
  <i type="string" name="ALGO"> Fast</i>
  <i type="int" name="ICHARG">     2</i>
  <i type="int" name="IBRION">     5</i>
  <i type="int" name="NFREE">     2</i>
  <i name="EDIFFG">     -0.05000000</i>
  <i type="int" name="NSW">     1</i>
  <i type="int" name="ISIF">     0</i>
  <i name="ENCUT">    500.00000000</i>
  <i name="POTIM">      0.01500000</i>
  <i type="string" name="LREAL"> Auto</i>
  <i type="int" name="ISMEAR">     0</i>
  <i name="SIGMA">      0.20000000</i>
  <i type="logical" name="LWAVE"> T  </i>
  <i type="logical" name="LCHARG"> T  </i>
  <i type="logical" name="LASPH"> T  </i>
  <v type="int" name="KPOINT_BSE">    -1     0     0     0</v>
  <i type="string" name="GGA"> RP</i>
  <i type="logical" name="LDIPOL"> T  </i>
  <i type="int" name="IDIPOL">     3</i>
  <v name="DIPOL">     11.17060000      8.91530000     13.73870000</v>
  <i type="logical" name="LASPH"> T  </i>
 </incar>
 <structure name="primitive_cell" >
  <crystal>
   <varray name="basis" >
    <v>      23.41129460       0.00000000       0.00000000 </v>
    <v>       0.00000000      18.12123695       0.00000000 </v>
    <v>       0.00000000       0.00000000      26.88336651 </v>
   </varray>
   <i name="volume">  11405.04286946 </i>
   <varray name="rec_basis" >
    <v>       0.04271443       0.00000000       0.00000000 </v>
    <v>       0.00000000       0.05518387       0.00000000 </v>
    <v>       0.00000000       0.00000000       0.03719772 </v>
   </varray>
  </crystal>
  <varray name="positions" >
   <v>      -0.40829641       0.43673464      -0.29547450 </v>
   <v>      -0.37230969       0.46375735      -0.31422368 </v>
   <v>      -0.39573900       0.39437619      -0.26844285 </v>
   <v>      -0.48655604       0.46576826      -0.30493494 </v>
   <v>      -0.37699313      -0.45358479      -0.24361975 </v>
   <v>      -0.48996727       0.42787951      -0.37300852 </v>
   <v>       0.47756643       0.40753171      -0.26563885 </v>
   <v>      -0.41772292      -0.44605734      -0.22476651 </v>
   <v>      -0.41237700       0.33000123      -0.38337050 </v>
   <v>      -0.42702806      -0.48333554      -0.19384594 </v>
   <v>      -0.34430648      -0.43136284      -0.36657268 </v>
   <v>      -0.45312333      -0.38986273      -0.23683468 </v>
   <v>       0.46992324      -0.44178856      -0.32256206 </v>
   <v>      -0.39303015       0.28568938      -0.39491930 </v>
   <v>      -0.44122213      -0.35399493      -0.26790973 </v>
   <v>      -0.45265387      -0.37642494      -0.36848466 </v>
   <v>       0.48496974       0.45341968      -0.42738380 </v>
   <v>      -0.38801511      -0.36783823      -0.39070045 </v>
   <v>      -0.28004301      -0.44199258      -0.39016145 </v>
   <v>       0.47907254      -0.40122915      -0.37683188 </v>
   <v>      -0.26216032       0.47223919      -0.40424355 </v>
   <v>       0.49287663      -0.37067070      -0.20975475 </v>
   <v>       0.48159300      -0.41306243      -0.18217258 </v>
   <v>      -0.46612168       0.48282071      -0.46681102 </v>
   <v>       0.45415727      -0.46438621      -0.41700602 </v>
   <v>       0.45714976      -0.36345922      -0.23592937 </v>
   <v>      -0.39841058      -0.39250037      -0.44830275 </v>
   <v>      -0.23309099      -0.41021472      -0.34995328 </v>
   <v>      -0.40634614       0.25690913      -0.45148410 </v>
   <v>       0.45142924       0.37825190      -0.44904945 </v>
   <v>      -0.20063568       0.35620478      -0.36444306 </v>
   <v>      -0.42309886      -0.45246256      -0.48784870 </v>
   <v>      -0.35783511      -0.28643271      -0.37911478 </v>
   <v>      -0.47266281       0.27190221      -0.46711234 </v>
   <v>       0.49871415      -0.31767775      -0.19012164 </v>
   <v>      -0.27872212      -0.39547354      -0.44245477 </v>
   <v>      -0.36666616       0.29919114      -0.49219930 </v>
   <v>      -0.19570264       0.44961341      -0.42002568 </v>
   <v>      -0.37487805       0.49980207       0.48637871 </v>
   <v>       0.44931880      -0.32435700      -0.39661550 </v>
   <v>      -0.17861074       0.37031395      -0.39348837 </v>
   <v>       0.46005899       0.29109959      -0.47111849 </v>
   <v>      -0.39300978       0.16808268      -0.45249910 </v>
   <v>      -0.16312071      -0.42307268      -0.35404213 </v>
   <v>      -0.13743123      -0.46076592      -0.30339630 </v>
   <v>       0.37532151       0.21192928      -0.35324407 </v>
   <v>      -0.15400396      -0.48231242      -0.40039262 </v>
   <v>       0.42582159       0.21931272      -0.44465835 </v>
   <v>       0.39743436       0.16683517      -0.35561683 </v>
   <v>      -0.44342670      -0.39788890       0.46724942 </v>
   <v>      -0.18852953       0.43753779      -0.47962968 </v>
   <v>      -0.12016519      -0.42802631      -0.27918942 </v>
   <v>      -0.25867731      -0.31579751      -0.46410971 </v>
   <v>      -0.32515624      -0.21250279      -0.40567990 </v>
   <v>       0.47834364       0.09396586      -0.40389649 </v>
   <v>       0.41862505       0.14153321      -0.41115877 </v>
   <v>      -0.34147466       0.30241018       0.45034791 </v>
   <v>      -0.34990126       0.47643512       0.43015089 </v>
   <v>      -0.30611703      -0.25005938      -0.45878262 </v>
   <v>      -0.33351162       0.38779294       0.43001156 </v>
   <v>       0.44025846       0.29460625       0.47032443 </v>
   <v>       0.40940692      -0.26330624      -0.42460305 </v>
   <v>      -0.23915928       0.07720805      -0.34924858 </v>
   <v>      -0.10772321       0.30762585      -0.38334890 </v>
   <v>      -0.13253399      -0.34228608      -0.36250535 </v>
   <v>      -0.19968945      -0.29710039      -0.43580817 </v>
   <v>      -0.22059403       0.09404872      -0.37941569 </v>
   <v>      -0.41020460       0.08793695      -0.47475911 </v>
   <v>      -0.48838678      -0.20164420      -0.45296042 </v>
   <v>      -0.27715970       0.26609272       0.45166811 </v>
   <v>      -0.44952043      -0.19996743      -0.46565258 </v>
   <v>      -0.35901135      -0.32315322       0.45481558 </v>
   <v>       0.25416993       0.37460562      -0.35127878 </v>
   <v>      -0.40565051      -0.15603656      -0.42253071 </v>
   <v>      -0.26400996      -0.17393028      -0.38671684 </v>
   <v>      -0.42579295       0.03057126      -0.42898884 </v>
   <v>      -0.36870741      -0.14337472      -0.40706117 </v>
   <v>       0.24367425       0.36018714      -0.31779724 </v>
   <v>      -0.29166097      -0.47242538       0.41995768 </v>
   <v>       0.35020405      -0.26096079      -0.39332648 </v>
   <v>      -0.42544062      -0.33210185       0.43556436 </v>
   <v>       0.44342035      -0.18167444      -0.41794614 </v>
   <v>      -0.08065514       0.27388998      -0.36771298 </v>
   <v>      -0.24744894      -0.31826736       0.47629548 </v>
   <v>      -0.25386162      -0.49727994       0.42248819 </v>
   <v>       0.39729647      -0.28197044      -0.48429536 </v>
   <v>      -0.49140431       0.01289768      -0.41393806 </v>
   <v>      -0.37882057       0.25234794       0.41090545 </v>
   <v>      -0.14305169      -0.27652817      -0.40344537 </v>
   <v>      -0.39730993       0.49007352       0.38567099 </v>
   <v>      -0.15823618       0.41386118       0.46783897 </v>
   <v>      -0.46209675       0.08882555       0.48623709 </v>
   <v>      -0.47426278       0.29018918       0.39855594 </v>
   <v>       0.45631390       0.30085966       0.40928789 </v>
   <v>      -0.40889798      -0.45890911       0.37803474 </v>
   <v>      -0.17178447       0.32779321       0.45190334 </v>
   <v>      -0.19411585       0.18605824       0.48316661 </v>
   <v>      -0.44364583      -0.25250064       0.44175101 </v>
   <v>       0.37270272       0.07639798      -0.43171362 </v>
   <v>      -0.20934471       0.25234731       0.44187265 </v>
   <v>       0.40895618       0.41114292       0.40569060 </v>
   <v>      -0.36364452       0.05127661       0.48937667 </v>
   <v>      -0.29689544      -0.29077378       0.43426040 </v>
   <v>      -0.15428559      -0.19478705      -0.37727094 </v>
   <v>      -0.18322241       0.47146980       0.42344221 </v>
   <v>      -0.26958338       0.02153674      -0.45699559 </v>
   <v>      -0.21179730       0.03221439      -0.42328971 </v>
   <v>       0.43678778       0.38217655       0.38641325 </v>
   <v>       0.21510523       0.33944855      -0.39629444 </v>
   <v>      -0.49646496      -0.05619885      -0.37130281 </v>
   <v>      -0.44242981      -0.17525184       0.47473025 </v>
   <v>       0.23929783       0.25833801      -0.41217765 </v>
   <v>       0.36894173      -0.37923684       0.43900002 </v>
   <v>       0.22500760       0.39538654      -0.44323992 </v>
   <v>      -0.43859219       0.23019333       0.38122611 </v>
   <v>       0.26222291      -0.33296908      -0.43126297 </v>
   <v>      -0.20187057      -0.13825571      -0.40434916 </v>
   <v>      -0.17164130      -0.31523526       0.46794226 </v>
   <v>       0.31538097       0.45954453       0.44243467 </v>
   <v>      -0.42742321      -0.36026008       0.37613173 </v>
   <v>       0.34681565       0.47644193       0.42038813 </v>
   <v>       0.28108144      -0.25688325      -0.40214382 </v>
   <v>      -0.25000693       0.11358682       0.45803819 </v>
   <v>       0.44986806      -0.09252426      -0.40540616 </v>
   <v>      -0.28156621      -0.38165915       0.38346059 </v>
   <v>      -0.08858302       0.42515266       0.47371881 </v>
   <v>       0.23975758      -0.46864252      -0.47709252 </v>
   <v>      -0.15884709      -0.48516534       0.41959617 </v>
   <v>       0.36878912      -0.29246420       0.45920930 </v>
   <v>      -0.16188995       0.06723760      -0.46017755 </v>
   <v>      -0.44256606       0.14483917       0.39490854 </v>
   <v>      -0.08923589      -0.27818202      -0.44242059 </v>
   <v>      -0.29810207       0.01725432       0.48732303 </v>
   <v>       0.24525419      -0.25730704      -0.34975555 </v>
   <v>      -0.47942146       0.08286369       0.42598659 </v>
   <v>      -0.08448732       0.22186232      -0.49053683 </v>
   <v>      -0.02447921       0.24466623      -0.39747734 </v>
   <v>       0.46847663      -0.03812102      -0.45369380 </v>
   <v>      -0.39733301      -0.13606527       0.46722346 </v>
   <v>       0.28210683       0.16738168      -0.48141361 </v>
   <v>      -0.14187766       0.12452130       0.49517595 </v>
   <v>      -0.13021182      -0.32303183       0.46415352 </v>
   <v>      -0.29953523      -0.20003622       0.43263529 </v>
   <v>      -0.28078056      -0.32717108       0.37958300 </v>
   <v>      -0.26187979       0.06524268       0.44522965 </v>
   <v>       0.21401283       0.44846881      -0.49030095 </v>
   <v>       0.42161095       0.23366028       0.37959630 </v>
   <v>       0.45189954       0.10197039       0.42059728 </v>
   <v>       0.39194221      -0.05590603      -0.38045650 </v>
   <v>      -0.18124669      -0.14241662      -0.46349861 </v>
   <v>       0.24616894      -0.21207464      -0.33045033 </v>
   <v>      -0.02263307       0.28641467      -0.45289958 </v>
   <v>       0.24925755       0.41544095       0.46105570 </v>
   <v>       0.21651490      -0.38577615      -0.46135762 </v>
   <v>      -0.40673065      -0.32960481       0.35239799 </v>
   <v>       0.23208999       0.17819050      -0.43897533 </v>
   <v>       0.35366063      -0.00913836      -0.42175052 </v>
   <v>       0.35019344       0.15901680       0.43963639 </v>
   <v>       0.33729937      -0.43764939       0.39908301 </v>
   <v>      -0.19864321      -0.04824223      -0.39415940 </v>
   <v>       0.46900683      -0.16616447       0.44382838 </v>
   <v>       0.23671023       0.11755400      -0.39472287 </v>
   <v>      -0.49872707      -0.13529031       0.45484168 </v>
   <v>      -0.08222865       0.16844636      -0.49175485 </v>
   <v>       0.41022327      -0.23852954       0.42343739 </v>
   <v>      -0.06472949       0.39192229       0.45410146 </v>
   <v>       0.27476529       0.27158094       0.44851223 </v>
   <v>      -0.19403592       0.22882063       0.38329286 </v>
   <v>       0.03356632       0.30991035      -0.34744711 </v>
   <v>      -0.02625522       0.15391747      -0.40127417 </v>
   <v>       0.28664212       0.18250980       0.45911077 </v>
   <v>       0.14802918       0.33753059      -0.37844577 </v>
   <v>       0.39917610       0.14990291       0.39600320 </v>
   <v>      -0.33494065      -0.12955447       0.43747644 </v>
   <v>      -0.08493787      -0.27203100       0.49625454 </v>
   <v>       0.27147671      -0.17786081      -0.43136150 </v>
   <v>       0.30104714      -0.26665510       0.45792526 </v>
   <v>       0.24448999       0.06554792      -0.40151269 </v>
   <v>       0.40547429      -0.44331228       0.33881989 </v>
   <v>       0.03505491       0.26492627      -0.36701608 </v>
   <v>      -0.42731074       0.22927626       0.32009968 </v>
   <v>      -0.20666030       0.17968696       0.37345652 </v>
   <v>      -0.41650714       0.27667161       0.30592717 </v>
   <v>       0.31174138       0.39088378       0.36925764 </v>
   <v>       0.15810978      -0.39746805      -0.42930439 </v>
   <v>      -0.29616144      -0.07038350       0.47018456 </v>
   <v>       0.24424715       0.34281439       0.42094710 </v>
   <v>       0.39849950      -0.23447833       0.38878680 </v>
   <v>       0.36535081      -0.43000530       0.34222079 </v>
   <v>      -0.46200909       0.00010556       0.40450275 </v>
   <v>       0.28462383      -0.02581799      -0.40630145 </v>
   <v>       0.20366815      -0.34201877       0.48688872 </v>
   <v>       0.12236422       0.29727895      -0.38698727 </v>
   <v>      -0.13087273       0.08045141       0.44227833 </v>
   <v>       0.06105935      -0.40234506      -0.37610494 </v>
   <v>       0.34879268      -0.07008800      -0.46941236 </v>
   <v>       0.26773979      -0.42525440       0.39230630 </v>
   <v>      -0.48000969      -0.04202717       0.42170307 </v>
   <v>       0.02307473       0.30285558      -0.49775449 </v>
   <v>      -0.12019815      -0.11528419      -0.48809494 </v>
   <v>       0.27537441       0.36459936       0.36737583 </v>
   <v>      -0.08900395      -0.18254436       0.48317962 </v>
   <v>       0.03890126       0.39150998       0.49910875 </v>
   <v>       0.17149230       0.17629711      -0.46902890 </v>
   <v>       0.14712345       0.44847794       0.49254493 </v>
   <v>       0.28283403      -0.09317745      -0.45032337 </v>
   <v>      -0.02170991      -0.29934830       0.47679564 </v>
   <v>       0.07395270      -0.36400719      -0.35364401 </v>
   <v>      -0.00672538       0.28042154       0.44840298 </v>
   <v>       0.06624110      -0.47937904      -0.45783445 </v>
   <v>       0.23024095      -0.27499144       0.45196954 </v>
   <v>       0.00940585       0.08713341      -0.42762129 </v>
   <v>      -0.34503478      -0.10219443       0.37922825 </v>
   <v>       0.23800967       0.13091919       0.42990119 </v>
   <v>      -0.07631263      -0.07765203      -0.44710222 </v>
   <v>       0.37300515       0.10331511       0.34795342 </v>
   <v>       0.08792762      -0.40224146      -0.43224934 </v>
   <v>      -0.01627891       0.04478543      -0.47891393 </v>
   <v>      -0.07357232       0.25107703       0.35633493 </v>
   <v>      -0.37426734      -0.06411909       0.37523120 </v>
   <v>       0.06610216      -0.33108307      -0.46427702 </v>
   <v>       0.07823286       0.46639306       0.49468762 </v>
   <v>       0.17751724       0.32237651       0.40527312 </v>
   <v>      -0.13430399      -0.06041500       0.46703846 </v>
   <v>       0.00790692       0.00563273      -0.39699098 </v>
   <v>       0.20353331      -0.19689062       0.47053363 </v>
   <v>       0.34154688       0.12799377       0.33077276 </v>
   <v>      -0.11109364      -0.00218294       0.42420019 </v>
   <v>       0.08010533       0.25268075      -0.48799997 </v>
   <v>       0.20850083      -0.38419209       0.37179454 </v>
   <v>       0.06133801      -0.49072023       0.44225348 </v>
   <v>       0.20829566      -0.29894764       0.39536010 </v>
   <v>       0.04814566      -0.29455484       0.48263019 </v>
   <v>       0.07303228       0.12189051      -0.43757584 </v>
   <v>      -0.03696346       0.27560337       0.35125762 </v>
   <v>       0.23744622      -0.07434119      -0.49208044 </v>
   <v>      -0.01349984      -0.03720063      -0.44965178 </v>
   <v>       0.10475877       0.16772641      -0.48217795 </v>
   <v>       0.01470021       0.25659834       0.39108141 </v>
   <v>      -0.17946160      -0.03258527       0.36899263 </v>
   <v>       0.15143775      -0.43418391       0.38895836 </v>
   <v>       0.00476455      -0.42379379       0.35777830 </v>
   <v>      -0.13845389      -0.02351109       0.36920633 </v>
   <v>       0.21190758       0.11686239       0.37359659 </v>
   <v>       0.19846065      -0.11510970       0.46399069 </v>
   <v>       0.24120333       0.16848629       0.32934297 </v>
   <v>      -0.04142180      -0.00034889       0.41695300 </v>
   <v>       0.07629334      -0.34156568       0.43588102 </v>
   <v>       0.24420236      -0.37216186       0.29432688 </v>
   <v>       0.03320152      -0.09553788      -0.47146552 </v>
   <v>       0.21637369       0.21025952       0.31923033 </v>
   <v>       0.03138539       0.16769789       0.38899188 </v>
   <v>       0.13935762       0.46038171       0.35192946 </v>
   <v>       0.08322528      -0.42117163       0.40641308 </v>
   <v>       0.20737430      -0.37918689       0.31036906 </v>
   <v>       0.07548726      -0.21078513       0.48299416 </v>
   <v>       0.13373852       0.33272697       0.35687228 </v>
   <v>       0.04607407      -0.42524524       0.35417863 </v>
   <v>       0.06962669       0.30851383       0.37637178 </v>
   <v>       0.09491131       0.12143090       0.46708233 </v>
   <v>       0.22218344      -0.09781075       0.40794682 </v>
   <v>       0.22638085       0.02858889       0.35811888 </v>
   <v>       0.13254706       0.41594418       0.33227266 </v>
   <v>       0.14242656       0.13153356       0.37597224 </v>
   <v>       0.22309457      -0.04743710       0.39320502 </v>
   <v>       0.06920979      -0.12873278       0.48050551 </v>
   <v>       0.15514768       0.27593132       0.31056042 </v>
   <v>       0.13279973      -0.08923729       0.47948708 </v>
   <v>       0.03453641      -0.10764417       0.42940526 </v>
   <v>       0.08345253       0.11158014       0.40698087 </v>
   <v>       0.22271586       0.01816699       0.32273843 </v>
   <v>       0.15750105       0.30221429       0.27898292 </v>
   <v>       0.01708949      -0.03710990       0.39361135 </v>
   <v>       0.06864615       0.02467349       0.39511073 </v>
   <v>      -0.02546089      -0.08398334       0.32530279 </v>
   <v>       0.01176032      -0.06517804       0.33524376 </v>
  </varray>
 </structure>
 <varray name="primitive_index" >
  <v type="int" >        1 </v>
  <v type="int" >       50 </v>
  <v type="int" >       49 </v>
  <v type="int" >      276 </v>
  <v type="int" >       55 </v>
  <v type="int" >       77 </v>
  <v type="int" >      210 </v>
  <v type="int" >        4 </v>
  <v type="int" >       15 </v>
  <v type="int" >       56 </v>
  <v type="int" >      103 </v>
  <v type="int" >        3 </v>
  <v type="int" >      124 </v>
  <v type="int" >      142 </v>
  <v type="int" >       54 </v>
  <v type="int" >      200 </v>
  <v type="int" >      275 </v>
  <v type="int" >      217 </v>
  <v type="int" >      271 </v>
  <v type="int" >      252 </v>
  <v type="int" >      112 </v>
  <v type="int" >        2 </v>
  <v type="int" >       52 </v>
  <v type="int" >      133 </v>
  <v type="int" >       85 </v>
  <v type="int" >       53 </v>
  <v type="int" >      166 </v>
  <v type="int" >      204 </v>
  <v type="int" >      245 </v>
  <v type="int" >      127 </v>
  <v type="int" >       20 </v>
  <v type="int" >      233 </v>
  <v type="int" >      206 </v>
  <v type="int" >      111 </v>
  <v type="int" >       51 </v>
  <v type="int" >      106 </v>
  <v type="int" >      170 </v>
  <v type="int" >      266 </v>
  <v type="int" >       99 </v>
  <v type="int" >      129 </v>
  <v type="int" >      171 </v>
  <v type="int" >      264 </v>
  <v type="int" >      158 </v>
  <v type="int" >      236 </v>
  <v type="int" >       59 </v>
  <v type="int" >       34 </v>
  <v type="int" >      154 </v>
  <v type="int" >      101 </v>
  <v type="int" >       84 </v>
  <v type="int" >      100 </v>
  <v type="int" >       75 </v>
  <v type="int" >       26 </v>
  <v type="int" >      255 </v>
  <v type="int" >      228 </v>
  <v type="int" >      201 </v>
  <v type="int" >      221 </v>
  <v type="int" >      263 </v>
  <v type="int" >      225 </v>
  <v type="int" >      116 </v>
  <v type="int" >      163 </v>
  <v type="int" >      151 </v>
  <v type="int" >      212 </v>
  <v type="int" >        5 </v>
  <v type="int" >       14 </v>
  <v type="int" >       71 </v>
  <v type="int" >      164 </v>
  <v type="int" >      131 </v>
  <v type="int" >      234 </v>
  <v type="int" >       33 </v>
  <v type="int" >      167 </v>
  <v type="int" >      199 </v>
  <v type="int" >      146 </v>
  <v type="int" >      183 </v>
  <v type="int" >       16 </v>
  <v type="int" >       98 </v>
  <v type="int" >      148 </v>
  <v type="int" >      184 </v>
  <v type="int" >       47 </v>
  <v type="int" >       93 </v>
  <v type="int" >       90 </v>
  <v type="int" >      243 </v>
  <v type="int" >      203 </v>
  <v type="int" >       97 </v>
  <v type="int" >      130 </v>
  <v type="int" >       19 </v>
  <v type="int" >      104 </v>
  <v type="int" >      261 </v>
  <v type="int" >      155 </v>
  <v type="int" >      240 </v>
  <v type="int" >      105 </v>
  <v type="int" >      213 </v>
  <v type="int" >      121 </v>
  <v type="int" >      118 </v>
  <v type="int" >      259 </v>
  <v type="int" >       21 </v>
  <v type="int" >      110 </v>
  <v type="int" >       65 </v>
  <v type="int" >       68 </v>
  <v type="int" >      161 </v>
  <v type="int" >      238 </v>
  <v type="int" >       37 </v>
  <v type="int" >       62 </v>
  <v type="int" >      257 </v>
  <v type="int" >      205 </v>
  <v type="int" >      134 </v>
  <v type="int" >       96 </v>
  <v type="int" >      258 </v>
  <v type="int" >      147 </v>
  <v type="int" >      227 </v>
  <v type="int" >      209 </v>
  <v type="int" >      270 </v>
  <v type="int" >       83 </v>
  <v type="int" >       57 </v>
  <v type="int" >      178 </v>
  <v type="int" >      251 </v>
  <v type="int" >      202 </v>
  <v type="int" >      231 </v>
  <v type="int" >       25 </v>
  <v type="int" >       36 </v>
  <v type="int" >       88 </v>
  <v type="int" >       58 </v>
  <v type="int" >      253 </v>
  <v type="int" >       11 </v>
  <v type="int" >      260 </v>
  <v type="int" >       22 </v>
  <v type="int" >      179 </v>
  <v type="int" >      137 </v>
  <v type="int" >       23 </v>
  <v type="int" >      230 </v>
  <v type="int" >      120 </v>
  <v type="int" >      113 </v>
  <v type="int" >       86 </v>
  <v type="int" >      223 </v>
  <v type="int" >      192 </v>
  <v type="int" >      220 </v>
  <v type="int" >       12 </v>
  <v type="int" >      246 </v>
  <v type="int" >      119 </v>
  <v type="int" >      156 </v>
  <v type="int" >      173 </v>
  <v type="int" >      235 </v>
  <v type="int" >      180 </v>
  <v type="int" >       95 </v>
  <v type="int" >      128 </v>
  <v type="int" >      181 </v>
  <v type="int" >      218 </v>
  <v type="int" >       74 </v>
  <v type="int" >       64 </v>
  <v type="int" >       69 </v>
  <v type="int" >      109 </v>
  <v type="int" >       48 </v>
  <v type="int" >      168 </v>
  <v type="int" >      174 </v>
  <v type="int" >      229 </v>
  <v type="int" >       43 </v>
  <v type="int" >      250 </v>
  <v type="int" >      274 </v>
  <v type="int" >      122 </v>
  <v type="int" >      265 </v>
  <v type="int" >      140 </v>
  <v type="int" >       44 </v>
  <v type="int" >      135 </v>
  <v type="int" >      198 </v>
  <v type="int" >      186 </v>
  <v type="int" >      185 </v>
  <v type="int" >       18 </v>
  <v type="int" >       67 </v>
  <v type="int" >      114 </v>
  <v type="int" >       17 </v>
  <v type="int" >       66 </v>
  <v type="int" >      272 </v>
  <v type="int" >      107 </v>
  <v type="int" >      239 </v>
  <v type="int" >      224 </v>
  <v type="int" >      219 </v>
  <v type="int" >      175 </v>
  <v type="int" >       73 </v>
  <v type="int" >       35 </v>
  <v type="int" >       41 </v>
  <v type="int" >      190 </v>
  <v type="int" >      191 </v>
  <v type="int" >        7 </v>
  <v type="int" >       13 </v>
  <v type="int" >       40 </v>
  <v type="int" >      169 </v>
  <v type="int" >      165 </v>
  <v type="int" >      262 </v>
  <v type="int" >       38 </v>
  <v type="int" >      195 </v>
  <v type="int" >      141 </v>
  <v type="int" >      208 </v>
  <v type="int" >      176 </v>
  <v type="int" >       45 </v>
  <v type="int" >       87 </v>
  <v type="int" >      138 </v>
  <v type="int" >       60 </v>
  <v type="int" >      150 </v>
  <v type="int" >       27 </v>
  <v type="int" >      242 </v>
  <v type="int" >      232 </v>
  <v type="int" >      194 </v>
  <v type="int" >       91 </v>
  <v type="int" >       82 </v>
  <v type="int" >      145 </v>
  <v type="int" >      177 </v>
  <v type="int" >      241 </v>
  <v type="int" >      102 </v>
  <v type="int" >       46 </v>
  <v type="int" >      132 </v>
  <v type="int" >      108 </v>
  <v type="int" >      244 </v>
  <v type="int" >      216 </v>
  <v type="int" >      125 </v>
  <v type="int" >      152 </v>
  <v type="int" >      117 </v>
  <v type="int" >      189 </v>
  <v type="int" >      273 </v>
  <v type="int" >       76 </v>
  <v type="int" >        6 </v>
  <v type="int" >        9 </v>
  <v type="int" >      162 </v>
  <v type="int" >      269 </v>
  <v type="int" >       70 </v>
  <v type="int" >       72 </v>
  <v type="int" >      207 </v>
  <v type="int" >      136 </v>
  <v type="int" >       31 </v>
  <v type="int" >      247 </v>
  <v type="int" >      160 </v>
  <v type="int" >      254 </v>
  <v type="int" >       92 </v>
  <v type="int" >       81 </v>
  <v type="int" >      249 </v>
  <v type="int" >      153 </v>
  <v type="int" >       79 </v>
  <v type="int" >      115 </v>
  <v type="int" >      256 </v>
  <v type="int" >      248 </v>
  <v type="int" >      215 </v>
  <v type="int" >       10 </v>
  <v type="int" >      149 </v>
  <v type="int" >       24 </v>
  <v type="int" >      143 </v>
  <v type="int" >      268 </v>
  <v type="int" >      226 </v>
  <v type="int" >      197 </v>
  <v type="int" >      172 </v>
  <v type="int" >      126 </v>
  <v type="int" >       39 </v>
  <v type="int" >       61 </v>
  <v type="int" >       29 </v>
  <v type="int" >      157 </v>
  <v type="int" >       42 </v>
  <v type="int" >      211 </v>
  <v type="int" >      193 </v>
  <v type="int" >       94 </v>
  <v type="int" >      237 </v>
  <v type="int" >      139 </v>
  <v type="int" >       80 </v>
  <v type="int" >      144 </v>
  <v type="int" >      182 </v>
  <v type="int" >      196 </v>
  <v type="int" >      187 </v>
  <v type="int" >       89 </v>
  <v type="int" >       28 </v>
  <v type="int" >      267 </v>
  <v type="int" >      188 </v>
  <v type="int" >      159 </v>
  <v type="int" >       78 </v>
  <v type="int" >      222 </v>
  <v type="int" >       32 </v>
  <v type="int" >       30 </v>
  <v type="int" >      214 </v>
  <v type="int" >       63 </v>
  <v type="int" >        8 </v>
  <v type="int" >      123 </v>
 </varray>
 <kpoints>
  <generation param="Monkhorst-Pack">
   <v type="int" name="divisions">       3        3        1 </v>
   <v name="usershift">      0.00000000       0.00000000       0.00000000 </v>
   <v name="genvec1">      0.33333333       0.00000000       0.00000000 </v>
   <v name="genvec2">      0.00000000       0.33333333       0.00000000 </v>
   <v name="genvec3">      0.00000000       0.00000000       1.00000000 </v>
   <v name="shift">      0.00000000       0.00000000       0.00000000 </v>
  </generation>
  <varray name="kpointlist" >
   <v>       0.00000000       0.00000000       0.00000000 </v>
   <v>       0.33333333       0.00000000       0.00000000 </v>
   <v>       0.00000000       0.33333333       0.00000000 </v>
   <v>       0.33333333       0.33333333       0.00000000 </v>
   <v>      -0.33333333       0.33333333       0.00000000 </v>
  </varray>
  <varray name="weights" >
   <v>       0.11111111 </v>
   <v>       0.22222222 </v>
   <v>       0.22222222 </v>
   <v>       0.22222222 </v>
   <v>       0.22222222 </v>
  </varray>
 </kpoints>
 <parameters>
  <separator name="general" >
   <i type="string" name="SYSTEM">unknown system</i>
   <i type="logical" name="LCOMPAT"> F  </i>
  </separator>
  <separator name="electronic" >
   <i type="string" name="PREC">normal</i>
   <i name="ENMAX">    500.00000000</i>
   <i name="ENAUG">    644.87300000</i>
   <i name="EDIFF">      0.00000100</i>
   <i type="int" name="IALGO">    68</i>
   <i type="int" name="IWAVPR">    11</i>
   <i type="int" name="NBANDS">   768</i>
   <i name="NELECT">   1258.00000000</i>
   <i type="int" name="TURBO">     0</i>
   <i type="int" name="IRESTART">     0</i>
   <i type="int" name="NREBOOT">     0</i>
   <i type="int" name="NMIN">     0</i>
   <i name="EREF">      0.00000000</i>
   <separator name="electronic smearing" >
    <i type="int" name="ISMEAR">     0</i>
    <i name="SIGMA">      0.20000000</i>
    <i name="KSPACING">      0.50000000</i>
    <i type="logical" name="KGAMMA"> T  </i>
   </separator>
   <separator name="electronic projectors" >
    <i type="logical" name="LREAL"> T  </i>
    <v name="ROPT">     -0.00050000     -0.00050000     -0.00050000     -0.00050000     -0.00050000</v>
    <i type="int" name="LMAXPAW">  -100</i>
    <i type="int" name="LMAXMIX">     2</i>
    <i type="logical" name="NLSPLINE"> F  </i>
   </separator>
   <separator name="electronic startup" >
    <i type="int" name="ISTART">     0</i>
    <i type="int" name="ICHARG">     2</i>
    <i type="int" name="INIWAV">     1</i>
   </separator>
   <separator name="electronic spin" >
    <i type="int" name="ISPIN">     1</i>
    <i type="logical" name="LNONCOLLINEAR"> F  </i>
    <v name="MAGMOM">      1.00000000      1.00000000      1.00000000      1.00000000      1.00000000      1.00000000      1.00000000      1.00000000      1.00000000      1.00000000      1.00000000      1.00000000      1.00000000      1.00000000      1.00000000      1.00000000      1.00000000      1.00000000      1.00000000      1.00000000
      1.00000000      1.00000000      1.00000000      1.00000000      1.00000000      1.00000000      1.00000000      1.00000000      1.00000000      1.00000000      1.00000000      1.00000000      1.00000000      1.00000000      1.00000000      1.00000000      1.00000000      1.00000000      1.00000000      1.00000000
      1.00000000      1.00000000      1.00000000      1.00000000      1.00000000      1.00000000      1.00000000      1.00000000      1.00000000      1.00000000      1.00000000      1.00000000      1.00000000      1.00000000      1.00000000      1.00000000      1.00000000      1.00000000      1.00000000      1.00000000
      1.00000000      1.00000000      1.00000000      1.00000000      1.00000000      1.00000000      1.00000000      1.00000000      1.00000000      1.00000000      1.00000000      1.00000000      1.00000000      1.00000000      1.00000000      1.00000000      1.00000000      1.00000000      1.00000000      1.00000000
      1.00000000      1.00000000      1.00000000      1.00000000      1.00000000      1.00000000      1.00000000      1.00000000      1.00000000      1.00000000      1.00000000      1.00000000      1.00000000      1.00000000      1.00000000      1.00000000      1.00000000      1.00000000      1.00000000      1.00000000
      1.00000000      1.00000000      1.00000000      1.00000000      1.00000000      1.00000000      1.00000000      1.00000000      1.00000000      1.00000000      1.00000000      1.00000000      1.00000000      1.00000000      1.00000000      1.00000000      1.00000000      1.00000000      1.00000000      1.00000000
      1.00000000      1.00000000      1.00000000      1.00000000      1.00000000      1.00000000      1.00000000      1.00000000      1.00000000      1.00000000      1.00000000      1.00000000      1.00000000      1.00000000      1.00000000      1.00000000      1.00000000      1.00000000      1.00000000      1.00000000
      1.00000000      1.00000000      1.00000000      1.00000000      1.00000000      1.00000000      1.00000000      1.00000000      1.00000000      1.00000000      1.00000000      1.00000000      1.00000000      1.00000000      1.00000000      1.00000000      1.00000000      1.00000000      1.00000000      1.00000000
      1.00000000      1.00000000      1.00000000      1.00000000      1.00000000      1.00000000      1.00000000      1.00000000      1.00000000      1.00000000      1.00000000      1.00000000      1.00000000      1.00000000      1.00000000      1.00000000      1.00000000      1.00000000      1.00000000      1.00000000
      1.00000000      1.00000000      1.00000000      1.00000000      1.00000000      1.00000000      1.00000000      1.00000000      1.00000000      1.00000000      1.00000000      1.00000000      1.00000000      1.00000000      1.00000000      1.00000000      1.00000000      1.00000000      1.00000000      1.00000000
      1.00000000      1.00000000      1.00000000      1.00000000      1.00000000      1.00000000      1.00000000      1.00000000      1.00000000      1.00000000      1.00000000      1.00000000      1.00000000      1.00000000      1.00000000      1.00000000      1.00000000      1.00000000      1.00000000      1.00000000
      1.00000000      1.00000000      1.00000000      1.00000000      1.00000000      1.00000000      1.00000000      1.00000000      1.00000000      1.00000000      1.00000000      1.00000000      1.00000000      1.00000000      1.00000000      1.00000000      1.00000000      1.00000000      1.00000000      1.00000000
      1.00000000      1.00000000      1.00000000      1.00000000      1.00000000      1.00000000      1.00000000      1.00000000      1.00000000      1.00000000      1.00000000      1.00000000      1.00000000      1.00000000      1.00000000      1.00000000      1.00000000      1.00000000      1.00000000      1.00000000
      1.00000000      1.00000000      1.00000000      1.00000000      1.00000000      1.00000000      1.00000000      1.00000000      1.00000000      1.00000000      1.00000000      1.00000000      1.00000000      1.00000000      1.00000000      1.00000000</v>
    <i name="NUPDOWN">     -1.00000000</i>
    <i type="logical" name="LSORBIT"> F  </i>
    <v name="SAXIS">      0.00000000      0.00000000      1.00000000</v>
    <i type="logical" name="LSPIRAL"> F  </i>
    <v name="QSPIRAL">      0.00000000      0.00000000      0.00000000</v>
    <i type="logical" name="LZEROZ"> F  </i>
   </separator>
   <separator name="electronic exchange-correlation" >
    <i type="logical" name="LASPH"> T  </i>
    <i type="logical" name="LMETAGGA"> F  </i>
   </separator>
   <separator name="electronic convergence" >
    <i type="int" name="NELM">    60</i>
    <i type="int" name="NELMDL">     0</i>
    <i type="int" name="NELMIN">     2</i>
    <i name="ENINI">    500.00000000</i>
    <separator name="electronic convergence detail" >
     <i type="logical" name="LDIAG"> T  </i>
     <i type="logical" name="LSUBROT"> F  </i>
     <i name="WEIMIN">      0.00100000</i>
     <i name="EBREAK">      0.00000000</i>
     <i name="DEPER">      0.30000000</i>
     <i type="int" name="NRMM">     4</i>
     <i name="TIME">      0.40000000</i>
    </separator>
   </separator>
   <separator name="electronic mixer" >
    <i name="AMIX">      0.40000000</i>
    <i name="BMIX">      1.00000000</i>
    <i name="AMIN">      0.10000000</i>
    <i name="AMIX_MAG">      1.60000000</i>
    <i name="BMIX_MAG">      1.00000000</i>
    <separator name="electronic mixer details" >
     <i type="int" name="IMIX">     4</i>
     <i type="logical" name="MIXFIRST"> F  </i>
     <i type="int" name="MAXMIX">   -45</i>
     <i name="WC">    100.00000000</i>
     <i type="int" name="INIMIX">     1</i>
     <i type="int" name="MIXPRE">     1</i>
     <i type="int" name="MREMOVE">     5</i>
    </separator>
   </separator>
   <separator name="electronic dipolcorrection" >
    <i type="logical" name="LDIPOL"> T  </i>
    <i type="logical" name="LMONO"> F  </i>
    <i type="int" name="IDIPOL">     3</i>
    <i name="EPSILON">      1.00000000</i>
    <v name="DIPOL">     11.17060000      8.91530000     13.73870000</v>
    <i name="EFIELD">      0.00000000</i>
   </separator>
  </separator>
  <separator name="grids" >
   <i type="int" name="NGX">   128</i>
   <i type="int" name="NGY">   100</i>
   <i type="int" name="NGZ">   150</i>
   <i type="int" name="NGXF">   256</i>
   <i type="int" name="NGYF">   200</i>
   <i type="int" name="NGZF">   300</i>
   <i type="logical" name="ADDGRID"> F  </i>
  </separator>
  <separator name="ionic" >
   <i type="int" name="NSW">  3349</i>
   <i type="int" name="IBRION">     5</i>
   <i type="int" name="MDALGO">     0</i>
   <i type="int" name="ISIF">     0</i>
   <i name="PSTRESS">      0.00000000</i>
   <i name="EDIFFG">     -0.05000000</i>
   <i type="int" name="NFREE">     2</i>
   <i name="POTIM">      0.01500000</i>
   <i name="SMASS">     -3.00000000</i>
   <i name="SCALEE">      1.00000000</i>
  </separator>
  <separator name="ionic md" >
   <i name="TEBEG">      0.00010000</i>
   <i name="TEEND">      0.00010000</i>
   <i type="int" name="NBLOCK">     1</i>
   <i type="int" name="KBLOCK">  3349</i>
   <i type="int" name="NPACO">   256</i>
   <i name="APACO">     16.00000000</i>
  </separator>
  <separator name="symmetry" >
   <i type="int" name="ISYM">     2</i>
   <i name="SYMPREC">      0.00001000</i>
  </separator>
  <separator name="dos" >
   <i type="int" name="LORBIT">     0</i>
   <v name="RWIGS">     -1.00000000     -1.00000000     -1.00000000     -1.00000000     -1.00000000</v>
   <i type="int" name="NEDOS">   301</i>
   <i name="EMIN">     10.00000000</i>
   <i name="EMAX">    -10.00000000</i>
   <i name="EFERMI">      0.00000000</i>
  </separator>
  <separator name="writing" >
   <i type="int" name="NWRITE">     2</i>
   <i type="logical" name="LWAVE"> T  </i>
   <i type="logical" name="LDOWNSAMPLE"> F  </i>
   <i type="logical" name="LCHARG"> T  </i>
   <i type="logical" name="LPARD"> F  </i>
   <i type="logical" name="LVTOT"> F  </i>
   <i type="logical" name="LVHAR"> F  </i>
   <i type="logical" name="LELF"> F  </i>
   <i type="logical" name="LOPTICS"> F  </i>
   <v name="STM">      0.00000000      0.00000000      0.00000000      0.00000000      0.00000000      0.00000000      0.00000000</v>
  </separator>
  <separator name="performance" >
   <i type="int" name="NPAR">    32</i>
   <i type="int" name="NSIM">     4</i>
   <i type="int" name="NBLK">    -1</i>
   <i type="logical" name="LPLANE"> T  </i>
   <i type="logical" name="LSCALAPACK"> T  </i>
   <i type="logical" name="LSCAAWARE"> F  </i>
   <i type="logical" name="LSCALU"> F  </i>
   <i type="logical" name="LASYNC"> F  </i>
   <i type="logical" name="LORBITALREAL"> F  </i>
  </separator>
  <separator name="miscellaneous" >
   <i type="int" name="IDIOT">     3</i>
   <i type="int" name="ISPECIAL">     0</i>
   <i type="logical" name="LMUSIC"> F  </i>
   <v name="POMASS">     12.01100000      1.00000000     16.00000000     28.08500000    183.85000000</v>
   <v name="DARWINR">      0.00000000      0.00000000      0.00000000      0.00000000      0.00000000</v>
   <v name="DARWINV">      1.00000000      1.00000000      1.00000000      1.00000000      1.00000000</v>
   <i type="logical" name="LCORR"> T  </i>
  </separator>
  <i type="logical" name="GGA_COMPAT"> T  </i>
  <i type="logical" name="LBERRY"> F  </i>
  <i type="int" name="ICORELEVEL">     0</i>
  <i type="logical" name="LDAU"> F  </i>
  <i type="int" name="I_CONSTRAINED_M">     0</i>
  <separator name="electronic exchange-correlation" >
   <i type="string" name="GGA">RP</i>
   <i type="int" name="VOSKOWN">     0</i>
   <i type="logical" name="LHFCALC"> F  </i>
   <i type="string" name="PRECFOCK"></i>
   <i type="logical" name="LSYMGRAD"> F  </i>
   <i type="logical" name="LHFONE"> F  </i>
   <i type="logical" name="LRHFCALC"> F  </i>
   <i type="logical" name="LTHOMAS"> F  </i>
   <i type="logical" name="LMODELHF"> F  </i>
   <i name="ENCUT4O">     -1.00000000</i>
   <i type="int" name="EXXOEP">     0</i>
   <i type="int" name="FOURORBIT">     0</i>
   <i name="AEXX">      0.00000000</i>
   <i name="HFALPHA">      0.00000000</i>
   <i name="MCALPHA">      0.00000000</i>
   <i name="ALDAX">      1.00000000</i>
   <i name="AGGAX">      1.00000000</i>
   <i name="ALDAC">      1.00000000</i>
   <i name="AGGAC">      1.00000000</i>
   <i type="int" name="NKREDX">     1</i>
   <i type="int" name="NKREDY">     1</i>
   <i type="int" name="NKREDZ">     1</i>
   <i type="logical" name="SHIFTRED"> F  </i>
   <i type="logical" name="ODDONLY"> F  </i>
   <i type="logical" name="EVENONLY"> F  </i>
   <i type="int" name="LMAXFOCK">     0</i>
   <i type="int" name="NMAXFOCKAE">     0</i>
   <i type="logical" name="LFOCKAEDFT"> F  </i>
   <i name="HFSCREEN">      0.00000000</i>
   <i name="HFSCREENC">      0.00000000</i>
   <i type="int" name="NBANDSGWLOW">     0</i>
  </separator>
  <separator name="vdW DFT" >
   <i type="logical" name="LUSE_VDW"> F  </i>
   <i name="Zab_VDW">     -0.84910000</i>
   <i name="PARAM1">      0.12340000</i>
   <i name="PARAM2">      1.00000000</i>
   <i name="PARAM3">      0.00000000</i>
  </separator>
  <separator name="model GW" >
   <i type="int" name="MODEL_GW">     0</i>
   <i name="MODEL_EPS0">     24.79357146</i>
   <i name="MODEL_ALPHA">      1.00000000</i>
  </separator>
  <separator name="linear response parameters" >
   <i type="logical" name="LEPSILON"> F  </i>
   <i type="logical" name="LRPA"> F  </i>
   <i type="logical" name="LNABLA"> F  </i>
   <i type="logical" name="LVEL"> F  </i>
   <i type="int" name="KINTER">     0</i>
   <i name="CSHIFT">      0.10000000</i>
   <i name="OMEGAMAX">     -1.00000000</i>
   <i name="DEG_THRESHOLD">      0.00200000</i>
   <i name="RTIME">     -0.10000000</i>
   <i name="WPLASMAI">      0.00000000</i>
   <v name="DFIELD">      0.00000000      0.00000000      0.00000000</v>
   <v name="WPLASMA">      0.00000000      0.00000000      0.00000000      0.00000000      0.00000000      0.00000000      0.00000000      0.00000000      0.00000000</v>
  </separator>
  <separator name="orbital magnetization" >
   <i type="logical" name="NUCIND"> F  </i>
   <v name="MAGPOS">      0.00000000      0.00000000      0.00000000</v>
   <i type="logical" name="LNICSALL"> T  </i>
   <i type="logical" name="ORBITALMAG"> F  </i>
   <i type="logical" name="LMAGBLOCH"> F  </i>
   <i type="logical" name="LCHIMAG"> F  </i>
   <i type="logical" name="LGAUGE"> T  </i>
   <i type="int" name="MAGATOM">     0</i>
   <v name="MAGDIPOL">      0.00000000      0.00000000      0.00000000</v>
   <v name="AVECCONST">      0.00000000      0.00000000      0.00000000</v>
  </separator>
  <separator name="response functions" >
   <i type="logical" name="LADDER"> F  </i>
   <i type="logical" name="LRPAFORCE"> F  </i>
   <i type="logical" name="LFXC"> F  </i>
   <i type="logical" name="LHARTREE"> T  </i>
   <i type="int" name="IBSE">     0</i>
   <v type="int" name="KPOINT">    -1     0     0     0</v>
   <i type="logical" name="LTCTE"> F  </i>
   <i type="logical" name="LTETE"> F  </i>
   <i type="logical" name="LTRIPLET"> F  </i>
   <i type="logical" name="LFXCEPS"> F  </i>
   <i type="logical" name="LFXHEG"> F  </i>
   <i type="int" name="NATURALO">     2</i>
   <i type="logical" name="L2ORDER"> F  </i>
   <i type="logical" name="LMP2LT"> F  </i>
   <i type="logical" name="LUSEW"> F  </i>
   <i name="ENCUTGW">     -2.00000000</i>
   <i name="ENCUTGWSOFT">     -2.00000000</i>
   <i name="ENCUTLF">     -1.00000000</i>
   <i type="int" name="LMAXMP2">    -1</i>
   <i name="SCISSOR">      0.00000000</i>
   <i type="int" name="NOMEGA">     0</i>
   <i type="int" name="NOMEGAR">     0</i>
   <i type="int" name="NBANDSGW">    -1</i>
   <i type="int" name="NBANDSO">    -1</i>
   <i type="int" name="NBANDSV">    -1</i>
   <i type="int" name="NELM">     1</i>
   <i type="int" name="NELMHF">     1</i>
   <i type="int" name="DIM">     3</i>
   <i type="int" name="ANTIRES">     0</i>
   <i name="OMEGAMAX">    -30.00000000</i>
   <i name="OMEGAMIN">    -30.00000000</i>
   <i name="OMEGATL">   -200.00000000</i>
   <i type="int" name="OMEGAGRID">   140</i>
   <i name="CSHIFT">     -0.10000000</i>
   <i type="logical" name="SELFENERGY"> F  </i>
   <i type="logical" name="LSPECTRAL"> F  </i>
   <i type="logical" name="LSPECTRALGW"> F  </i>
   <i type="logical" name="LSINGLES"> F  </i>
   <i type="logical" name="LFERMIGW"> F  </i>
   <i type="logical" name="ODDONLYGW"> F  </i>
   <i type="logical" name="EVENONLYGW"> F  </i>
   <i type="int" name="NKREDLFX">     1</i>
   <i type="int" name="NKREDLFY">     1</i>
   <i type="int" name="NKREDLFZ">     1</i>
   <i type="int" name="MAXMEM">  2800</i>
   <i type="int" name="TELESCOPE">     0</i>
   <i type="int" name="TAUPAR">     1</i>
   <i type="int" name="OMEGAPAR">    -1</i>
   <i name="LAMBDA">      1.00000000</i>
  </separator>
  <separator name="External order field" >
   <i name="OFIELD_KAPPA">      0.00000000</i>
   <v name="OFIELD_K">      0.00000000      0.00000000      0.00000000</v>
   <i name="OFIELD_Q6_NEAR">      0.00000000</i>
   <i name="OFIELD_Q6_FAR">      0.00000000</i>
   <i name="OFIELD_A">      0.00000000</i>
  </separator>
 </parameters>
 <atominfo>
  <atoms>     276 </atoms>
  <types>       5 </types>
  <array name="atoms" >
   <dimension dim="1">ion</dimension>
   <field type="string">element</field>
   <field type="int">atomtype</field>
   <set>
    <rc><c>C </c><c>   1</c></rc>
    <rc><c>C </c><c>   1</c></rc>
    <rc><c>C </c><c>   1</c></rc>
    <rc><c>C </c><c>   1</c></rc>
    <rc><c>H </c><c>   2</c></rc>
    <rc><c>H </c><c>   2</c></rc>
    <rc><c>H </c><c>   2</c></rc>
    <rc><c>H </c><c>   2</c></rc>
    <rc><c>H </c><c>   2</c></rc>
    <rc><c>H </c><c>   2</c></rc>
    <rc><c>H </c><c>   2</c></rc>
    <rc><c>H </c><c>   2</c></rc>
    <rc><c>H </c><c>   2</c></rc>
    <rc><c>H </c><c>   2</c></rc>
    <rc><c>H </c><c>   2</c></rc>
    <rc><c>H </c><c>   2</c></rc>
    <rc><c>H </c><c>   2</c></rc>
    <rc><c>H </c><c>   2</c></rc>
    <rc><c>H </c><c>   2</c></rc>
    <rc><c>H </c><c>   2</c></rc>
    <rc><c>H </c><c>   2</c></rc>
    <rc><c>H </c><c>   2</c></rc>
    <rc><c>H </c><c>   2</c></rc>
    <rc><c>H </c><c>   2</c></rc>
    <rc><c>H </c><c>   2</c></rc>
    <rc><c>H </c><c>   2</c></rc>
    <rc><c>H </c><c>   2</c></rc>
    <rc><c>H </c><c>   2</c></rc>
    <rc><c>H </c><c>   2</c></rc>
    <rc><c>H </c><c>   2</c></rc>
    <rc><c>H </c><c>   2</c></rc>
    <rc><c>H </c><c>   2</c></rc>
    <rc><c>H </c><c>   2</c></rc>
    <rc><c>H </c><c>   2</c></rc>
    <rc><c>H </c><c>   2</c></rc>
    <rc><c>H </c><c>   2</c></rc>
    <rc><c>H </c><c>   2</c></rc>
    <rc><c>H </c><c>   2</c></rc>
    <rc><c>H </c><c>   2</c></rc>
    <rc><c>H </c><c>   2</c></rc>
    <rc><c>H </c><c>   2</c></rc>
    <rc><c>H </c><c>   2</c></rc>
    <rc><c>H </c><c>   2</c></rc>
    <rc><c>H </c><c>   2</c></rc>
    <rc><c>H </c><c>   2</c></rc>
    <rc><c>H </c><c>   2</c></rc>
    <rc><c>H </c><c>   2</c></rc>
    <rc><c>H </c><c>   2</c></rc>
    <rc><c>H </c><c>   2</c></rc>
    <rc><c>H </c><c>   2</c></rc>
    <rc><c>H </c><c>   2</c></rc>
    <rc><c>H </c><c>   2</c></rc>
    <rc><c>H </c><c>   2</c></rc>
    <rc><c>H </c><c>   2</c></rc>
    <rc><c>H </c><c>   2</c></rc>
    <rc><c>H </c><c>   2</c></rc>
    <rc><c>O </c><c>   3</c></rc>
    <rc><c>O </c><c>   3</c></rc>
    <rc><c>O </c><c>   3</c></rc>
    <rc><c>O </c><c>   3</c></rc>
    <rc><c>O </c><c>   3</c></rc>
    <rc><c>O </c><c>   3</c></rc>
    <rc><c>O </c><c>   3</c></rc>
    <rc><c>O </c><c>   3</c></rc>
    <rc><c>O </c><c>   3</c></rc>
    <rc><c>O </c><c>   3</c></rc>
    <rc><c>O </c><c>   3</c></rc>
    <rc><c>O </c><c>   3</c></rc>
    <rc><c>O </c><c>   3</c></rc>
    <rc><c>O </c><c>   3</c></rc>
    <rc><c>O </c><c>   3</c></rc>
    <rc><c>O </c><c>   3</c></rc>
    <rc><c>O </c><c>   3</c></rc>
    <rc><c>O </c><c>   3</c></rc>
    <rc><c>O </c><c>   3</c></rc>
    <rc><c>O </c><c>   3</c></rc>
    <rc><c>O </c><c>   3</c></rc>
    <rc><c>O </c><c>   3</c></rc>
    <rc><c>O </c><c>   3</c></rc>
    <rc><c>O </c><c>   3</c></rc>
    <rc><c>O </c><c>   3</c></rc>
    <rc><c>O </c><c>   3</c></rc>
    <rc><c>O </c><c>   3</c></rc>
    <rc><c>O </c><c>   3</c></rc>
    <rc><c>O </c><c>   3</c></rc>
    <rc><c>O </c><c>   3</c></rc>
    <rc><c>O </c><c>   3</c></rc>
    <rc><c>O </c><c>   3</c></rc>
    <rc><c>O </c><c>   3</c></rc>
    <rc><c>O </c><c>   3</c></rc>
    <rc><c>O </c><c>   3</c></rc>
    <rc><c>O </c><c>   3</c></rc>
    <rc><c>O </c><c>   3</c></rc>
    <rc><c>O </c><c>   3</c></rc>
    <rc><c>O </c><c>   3</c></rc>
    <rc><c>O </c><c>   3</c></rc>
    <rc><c>O </c><c>   3</c></rc>
    <rc><c>O </c><c>   3</c></rc>
    <rc><c>O </c><c>   3</c></rc>
    <rc><c>O </c><c>   3</c></rc>
    <rc><c>O </c><c>   3</c></rc>
    <rc><c>O </c><c>   3</c></rc>
    <rc><c>O </c><c>   3</c></rc>
    <rc><c>O </c><c>   3</c></rc>
    <rc><c>O </c><c>   3</c></rc>
    <rc><c>O </c><c>   3</c></rc>
    <rc><c>O </c><c>   3</c></rc>
    <rc><c>O </c><c>   3</c></rc>
    <rc><c>O </c><c>   3</c></rc>
    <rc><c>O </c><c>   3</c></rc>
    <rc><c>O </c><c>   3</c></rc>
    <rc><c>O </c><c>   3</c></rc>
    <rc><c>O </c><c>   3</c></rc>
    <rc><c>O </c><c>   3</c></rc>
    <rc><c>O </c><c>   3</c></rc>
    <rc><c>O </c><c>   3</c></rc>
    <rc><c>O </c><c>   3</c></rc>
    <rc><c>O </c><c>   3</c></rc>
    <rc><c>O </c><c>   3</c></rc>
    <rc><c>O </c><c>   3</c></rc>
    <rc><c>O </c><c>   3</c></rc>
    <rc><c>O </c><c>   3</c></rc>
    <rc><c>O </c><c>   3</c></rc>
    <rc><c>O </c><c>   3</c></rc>
    <rc><c>O </c><c>   3</c></rc>
    <rc><c>O </c><c>   3</c></rc>
    <rc><c>O </c><c>   3</c></rc>
    <rc><c>O </c><c>   3</c></rc>
    <rc><c>O </c><c>   3</c></rc>
    <rc><c>O </c><c>   3</c></rc>
    <rc><c>O </c><c>   3</c></rc>
    <rc><c>O </c><c>   3</c></rc>
    <rc><c>O </c><c>   3</c></rc>
    <rc><c>O </c><c>   3</c></rc>
    <rc><c>O </c><c>   3</c></rc>
    <rc><c>O </c><c>   3</c></rc>
    <rc><c>O </c><c>   3</c></rc>
    <rc><c>O </c><c>   3</c></rc>
    <rc><c>O </c><c>   3</c></rc>
    <rc><c>O </c><c>   3</c></rc>
    <rc><c>O </c><c>   3</c></rc>
    <rc><c>O </c><c>   3</c></rc>
    <rc><c>O </c><c>   3</c></rc>
    <rc><c>O </c><c>   3</c></rc>
    <rc><c>O </c><c>   3</c></rc>
    <rc><c>O </c><c>   3</c></rc>
    <rc><c>O </c><c>   3</c></rc>
    <rc><c>O </c><c>   3</c></rc>
    <rc><c>O </c><c>   3</c></rc>
    <rc><c>O </c><c>   3</c></rc>
    <rc><c>O </c><c>   3</c></rc>
    <rc><c>O </c><c>   3</c></rc>
    <rc><c>O </c><c>   3</c></rc>
    <rc><c>O </c><c>   3</c></rc>
    <rc><c>O </c><c>   3</c></rc>
    <rc><c>O </c><c>   3</c></rc>
    <rc><c>O </c><c>   3</c></rc>
    <rc><c>O </c><c>   3</c></rc>
    <rc><c>O </c><c>   3</c></rc>
    <rc><c>O </c><c>   3</c></rc>
    <rc><c>O </c><c>   3</c></rc>
    <rc><c>O </c><c>   3</c></rc>
    <rc><c>O </c><c>   3</c></rc>
    <rc><c>O </c><c>   3</c></rc>
    <rc><c>O </c><c>   3</c></rc>
    <rc><c>O </c><c>   3</c></rc>
    <rc><c>O </c><c>   3</c></rc>
    <rc><c>O </c><c>   3</c></rc>
    <rc><c>O </c><c>   3</c></rc>
    <rc><c>O </c><c>   3</c></rc>
    <rc><c>O </c><c>   3</c></rc>
    <rc><c>O </c><c>   3</c></rc>
    <rc><c>O </c><c>   3</c></rc>
    <rc><c>O </c><c>   3</c></rc>
    <rc><c>O </c><c>   3</c></rc>
    <rc><c>O </c><c>   3</c></rc>
    <rc><c>O </c><c>   3</c></rc>
    <rc><c>O </c><c>   3</c></rc>
    <rc><c>O </c><c>   3</c></rc>
    <rc><c>O </c><c>   3</c></rc>
    <rc><c>O </c><c>   3</c></rc>
    <rc><c>O </c><c>   3</c></rc>
    <rc><c>O </c><c>   3</c></rc>
    <rc><c>O </c><c>   3</c></rc>
    <rc><c>O </c><c>   3</c></rc>
    <rc><c>O </c><c>   3</c></rc>
    <rc><c>O </c><c>   3</c></rc>
    <rc><c>O </c><c>   3</c></rc>
    <rc><c>O </c><c>   3</c></rc>
    <rc><c>O </c><c>   3</c></rc>
    <rc><c>O </c><c>   3</c></rc>
    <rc><c>O </c><c>   3</c></rc>
    <rc><c>O </c><c>   3</c></rc>
    <rc><c>O </c><c>   3</c></rc>
    <rc><c>O </c><c>   3</c></rc>
    <rc><c>O </c><c>   3</c></rc>
    <rc><c>O </c><c>   3</c></rc>
    <rc><c>O </c><c>   3</c></rc>
    <rc><c>O </c><c>   3</c></rc>
    <rc><c>O </c><c>   3</c></rc>
    <rc><c>O </c><c>   3</c></rc>
    <rc><c>O </c><c>   3</c></rc>
    <rc><c>O </c><c>   3</c></rc>
    <rc><c>O </c><c>   3</c></rc>
    <rc><c>O </c><c>   3</c></rc>
    <rc><c>O </c><c>   3</c></rc>
    <rc><c>O </c><c>   3</c></rc>
    <rc><c>O </c><c>   3</c></rc>
    <rc><c>O </c><c>   3</c></rc>
    <rc><c>O </c><c>   3</c></rc>
    <rc><c>Si</c><c>   4</c></rc>
    <rc><c>Si</c><c>   4</c></rc>
    <rc><c>Si</c><c>   4</c></rc>
    <rc><c>Si</c><c>   4</c></rc>
    <rc><c>Si</c><c>   4</c></rc>
    <rc><c>Si</c><c>   4</c></rc>
    <rc><c>Si</c><c>   4</c></rc>
    <rc><c>Si</c><c>   4</c></rc>
    <rc><c>Si</c><c>   4</c></rc>
    <rc><c>Si</c><c>   4</c></rc>
    <rc><c>Si</c><c>   4</c></rc>
    <rc><c>Si</c><c>   4</c></rc>
    <rc><c>Si</c><c>   4</c></rc>
    <rc><c>Si</c><c>   4</c></rc>
    <rc><c>Si</c><c>   4</c></rc>
    <rc><c>Si</c><c>   4</c></rc>
    <rc><c>Si</c><c>   4</c></rc>
    <rc><c>Si</c><c>   4</c></rc>
    <rc><c>Si</c><c>   4</c></rc>
    <rc><c>Si</c><c>   4</c></rc>
    <rc><c>Si</c><c>   4</c></rc>
    <rc><c>Si</c><c>   4</c></rc>
    <rc><c>Si</c><c>   4</c></rc>
    <rc><c>Si</c><c>   4</c></rc>
    <rc><c>Si</c><c>   4</c></rc>
    <rc><c>Si</c><c>   4</c></rc>
    <rc><c>Si</c><c>   4</c></rc>
    <rc><c>Si</c><c>   4</c></rc>
    <rc><c>Si</c><c>   4</c></rc>
    <rc><c>Si</c><c>   4</c></rc>
    <rc><c>Si</c><c>   4</c></rc>
    <rc><c>Si</c><c>   4</c></rc>
    <rc><c>Si</c><c>   4</c></rc>
    <rc><c>Si</c><c>   4</c></rc>
    <rc><c>Si</c><c>   4</c></rc>
    <rc><c>Si</c><c>   4</c></rc>
    <rc><c>Si</c><c>   4</c></rc>
    <rc><c>Si</c><c>   4</c></rc>
    <rc><c>Si</c><c>   4</c></rc>
    <rc><c>Si</c><c>   4</c></rc>
    <rc><c>Si</c><c>   4</c></rc>
    <rc><c>Si</c><c>   4</c></rc>
    <rc><c>Si</c><c>   4</c></rc>
    <rc><c>Si</c><c>   4</c></rc>
    <rc><c>Si</c><c>   4</c></rc>
    <rc><c>Si</c><c>   4</c></rc>
    <rc><c>Si</c><c>   4</c></rc>
    <rc><c>Si</c><c>   4</c></rc>
    <rc><c>Si</c><c>   4</c></rc>
    <rc><c>Si</c><c>   4</c></rc>
    <rc><c>Si</c><c>   4</c></rc>
    <rc><c>Si</c><c>   4</c></rc>
    <rc><c>Si</c><c>   4</c></rc>
    <rc><c>Si</c><c>   4</c></rc>
    <rc><c>Si</c><c>   4</c></rc>
    <rc><c>Si</c><c>   4</c></rc>
    <rc><c>Si</c><c>   4</c></rc>
    <rc><c>Si</c><c>   4</c></rc>
    <rc><c>Si</c><c>   4</c></rc>
    <rc><c>Si</c><c>   4</c></rc>
    <rc><c>Si</c><c>   4</c></rc>
    <rc><c>Si</c><c>   4</c></rc>
    <rc><c>Si</c><c>   4</c></rc>
    <rc><c>Si</c><c>   4</c></rc>
    <rc><c>Si</c><c>   4</c></rc>
    <rc><c>W </c><c>   5</c></rc>
   </set>
  </array>
  <array name="atomtypes" >
   <dimension dim="1">type</dimension>
   <field type="int">atomspertype</field>
   <field type="string">element</field>
   <field>mass</field>
   <field>valence</field>
   <field type="string">pseudopotential</field>
   <set>
    <rc><c>   4</c><c>C </c><c>     12.01100000</c><c>      4.00000000</c><c>  PAW_PBE C 08Apr2002                   </c></rc>
    <rc><c>  52</c><c>H </c><c>      1.00000000</c><c>      1.00000000</c><c>  PAW_PBE H 15Jun2001                   </c></rc>
    <rc><c> 154</c><c>O </c><c>     16.00000000</c><c>      6.00000000</c><c>  PAW_PBE O 08Apr2002                   </c></rc>
    <rc><c>  65</c><c>Si</c><c>     28.08500000</c><c>      4.00000000</c><c>  PAW_PBE Si 05Jan2001                  </c></rc>
    <rc><c>   1</c><c>W </c><c>    183.85000000</c><c>      6.00000000</c><c>  PAW_PBE W 08Apr2002                   </c></rc>
   </set>
  </array>
 </atominfo>
 <structure name="initialpos" >
  <crystal>
   <varray name="basis" >
    <v>      23.41129460       0.00000000       0.00000000 </v>
    <v>       0.00000000      18.12123695       0.00000000 </v>
    <v>       0.00000000       0.00000000      26.88336651 </v>
   </varray>
   <i name="volume">  11405.04286946 </i>
   <varray name="rec_basis" >
    <v>       0.04271443       0.00000000       0.00000000 </v>
    <v>       0.00000000       0.05518387       0.00000000 </v>
    <v>       0.00000000       0.00000000       0.03719772 </v>
   </varray>
  </crystal>
  <varray name="positions" >
   <v>       0.59170359       0.43673464       0.70452550 </v>
   <v>       0.49287663       0.62932930       0.79024525 </v>
   <v>       0.54687667       0.61013727       0.76316532 </v>
   <v>       0.58227708       0.55394266       0.77523349 </v>
   <v>       0.76084072       0.07720805       0.65075142 </v>
   <v>       0.92642768       0.25107703       0.35633493 </v>
   <v>       0.79333970       0.17968696       0.37345652 </v>
   <v>       0.97453911       0.91601666       0.32530279 </v>
   <v>       0.62573266       0.93588091       0.37523120 </v>
   <v>       0.82053840       0.96741473       0.36899263 </v>
   <v>       0.74999307       0.11358682       0.45803819 </v>
   <v>       0.91551268       0.22186232       0.50946317 </v>
   <v>       0.58349286       0.27667161       0.30592717 </v>
   <v>       0.89227679       0.30762585       0.61665110 </v>
   <v>       0.58762300       0.33000123       0.61662950 </v>
   <v>       0.59434949       0.84396344       0.57746929 </v>
   <v>       0.03356632       0.30991035       0.65255289 </v>
   <v>       0.93527051       0.39192229       0.45410146 </v>
   <v>       0.74613838       0.50272006       0.42248819 </v>
   <v>       0.79936432       0.35620478       0.63555694 </v>
   <v>       0.59110202       0.54109089       0.37803474 </v>
   <v>       0.71843379       0.61834085       0.38346059 </v>
   <v>       0.84115291       0.51483466       0.41959617 </v>
   <v>       0.00476455       0.57620621       0.35777830 </v>
   <v>       0.82835870       0.68476474       0.46794226 </v>
   <v>       0.87983481       0.57197369       0.72081058 </v>
   <v>       0.51999031       0.95797283       0.42170307 </v>
   <v>       0.22309457       0.95256290       0.39320502 </v>
   <v>       0.21637369       0.21025952       0.31923033 </v>
   <v>       0.15750105       0.30221429       0.27898292 </v>
   <v>       0.34154688       0.12799377       0.33077276 </v>
   <v>       0.22271586       0.01816699       0.32273843 </v>
   <v>       0.51161322       0.79835580       0.54703958 </v>
   <v>       0.37532151       0.21192928       0.64675593 </v>
   <v>       0.24448999       0.06554792       0.59848731 </v>
   <v>       0.31538097       0.45954453       0.44243467 </v>
   <v>       0.40895618       0.41114292       0.40569060 </v>
   <v>       0.39849950       0.76552167       0.38878680 </v>
   <v>       0.24420236       0.62783814       0.29432688 </v>
   <v>       0.31174138       0.39088378       0.36925764 </v>
   <v>       0.40547429       0.55668772       0.33881989 </v>
   <v>       0.13935762       0.46038171       0.35192946 </v>
   <v>       0.59326935       0.67039519       0.35239799 </v>
   <v>       0.46900683       0.83383553       0.44382838 </v>
   <v>       0.12236422       0.29727895       0.61301273 </v>
   <v>       0.07395270       0.63599281       0.64635599 </v>
   <v>       0.24367425       0.36018714       0.68220276 </v>
   <v>       0.24616894       0.78792536       0.66954967 </v>
   <v>       0.60426100       0.39437619       0.73155715 </v>
   <v>       0.62769031       0.46375735       0.68577632 </v>
   <v>       0.49871415       0.68232225       0.80987836 </v>
   <v>       0.48159300       0.58693757       0.81782742 </v>
   <v>       0.45714976       0.63654078       0.76407063 </v>
   <v>       0.55877787       0.64600507       0.73209027 </v>
   <v>       0.62300687       0.54641521       0.75638025 </v>
   <v>       0.57297194       0.51666446       0.80615406 </v>
   <v>       0.36894173       0.62076316       0.43900002 </v>
   <v>       0.34681565       0.47644193       0.42038813 </v>
   <v>       0.86256877       0.53923408       0.69660370 </v>
   <v>       0.34879268       0.92991200       0.53058764 </v>
   <v>       0.03320152       0.90446212       0.52853448 </v>
   <v>       0.63635548       0.05127661       0.48937667 </v>
   <v>       0.06864615       0.02467349       0.39511073 </v>
   <v>       0.45189954       0.10197039       0.42059728 </v>
   <v>       0.80588415       0.18605824       0.48316661 </v>
   <v>       0.97374478       0.15391747       0.59872583 </v>
   <v>       0.27476529       0.27158094       0.44851223 </v>
   <v>       0.55635417       0.74749936       0.44175101 </v>
   <v>       0.39194221       0.94409397       0.61954350 </v>
   <v>       0.17751724       0.32237651       0.40527312 </v>
   <v>       0.86746601       0.65771392       0.63749465 </v>
   <v>       0.86569601       0.93958500       0.46703846 </v>
   <v>       0.30104714       0.73334490       0.45792526 </v>
   <v>       0.42161095       0.23366028       0.37959630 </v>
   <v>       0.81147047       0.43753779       0.52037032 </v>
   <v>       0.98372109       0.04478543       0.52108607 </v>
   <v>       0.51003273       0.42787951       0.62699148 </v>
   <v>       0.03453641       0.89235583       0.42940526 </v>
   <v>       0.96303654       0.27560337       0.35125762 </v>
   <v>       0.06962669       0.30851383       0.37637178 </v>
   <v>       0.20829566       0.70105236       0.39536010 </v>
   <v>       0.03890126       0.39150998       0.49910875 </v>
   <v>       0.23929783       0.25833801       0.58782235 </v>
   <v>       0.39743436       0.16683517       0.64438317 </v>
   <v>       0.45415727       0.53561379       0.58299398 </v>
   <v>       0.91076411       0.72181798       0.55757941 </v>
   <v>       0.86912727       0.08045141       0.44227833 </v>
   <v>       0.57257679       0.63973992       0.37613173 </v>
   <v>       0.14242656       0.13153356       0.37597224 </v>
   <v>       0.35020405       0.73903921       0.60667352 </v>
   <v>       0.91099605       0.81745564       0.48317962 </v>
   <v>       0.06133801       0.50927977       0.44225348 </v>
   <v>       0.70833903       0.52757462       0.41995768 </v>
   <v>       0.07548726       0.78921487       0.48299416 </v>
   <v>       0.70046477       0.79996378       0.43263529 </v>
   <v>       0.73041662       0.02153674       0.54300441 </v>
   <v>       0.91934486       0.27388998       0.63228702 </v>
   <v>       0.73599004       0.82606972       0.61328316 </v>
   <v>       0.62512195       0.49980207       0.48637871 </v>
   <v>       0.55657330       0.60211110       0.46724942 </v>
   <v>       0.42582159       0.21931272       0.55534165 </v>
   <v>       0.97829009       0.70065170       0.47679564 </v>
   <v>       0.65569352       0.56863716       0.63342732 </v>
   <v>       0.39729647       0.71802956       0.51570464 </v>
   <v>       0.60269007       0.49007352       0.38567099 </v>
   <v>       0.72127788       0.60452646       0.55754523 </v>
   <v>       0.14802918       0.33753059       0.62155423 </v>
   <v>       0.06624110       0.52062096       0.54216555 </v>
   <v>       0.81875331       0.85758338       0.53650139 </v>
   <v>       0.82821553       0.32779321       0.45190334 </v>
   <v>       0.52733719       0.27190221       0.53288766 </v>
   <v>       0.73783968       0.47223919       0.59575645 </v>
   <v>       0.55743394       0.14483917       0.39490854 </v>
   <v>       0.80596408       0.22882063       0.38329286 </v>
   <v>       0.23744622       0.92565881       0.50791956 </v>
   <v>       0.69388297       0.74994062       0.54121738 </v>
   <v>       0.92368737       0.92234797       0.55289778 </v>
   <v>       0.52573722       0.29018918       0.39855594 </v>
   <v>       0.46847663       0.96187898       0.54630620 </v>
   <v>       0.83811005       0.06723760       0.53982245 </v>
   <v>       0.53790325       0.08882555       0.48623709 </v>
   <v>       0.35019344       0.15901680       0.43963639 </v>
   <v>       0.01176032       0.93482196       0.33524376 </v>
   <v>       0.46992324       0.55821144       0.67743794 </v>
   <v>       0.65496522       0.89780557       0.37922825 </v>
   <v>       0.07629334       0.65843432       0.43588102 </v>
   <v>       0.45142924       0.37825190       0.55095055 </v>
   <v>       0.71921944       0.67282892       0.37958300 </v>
   <v>       0.44931880       0.67564300       0.60338450 </v>
   <v>       0.75255106       0.68173264       0.47629548 </v>
   <v>       0.77940597       0.09404872       0.62058431 </v>
   <v>       0.99327462       0.28042154       0.44840298 </v>
   <v>       0.53387832       0.48282071       0.53318898 </v>
   <v>       0.81677759       0.47146980       0.42344221 </v>
   <v>       0.23671023       0.11755400       0.60527713 </v>
   <v>       0.20353331       0.80310938       0.47053363 </v>
   <v>       0.23975758       0.53135748       0.52290748 </v>
   <v>       0.06105935       0.59765494       0.62389506 </v>
   <v>       0.04607407       0.57475476       0.35417863 </v>
   <v>       0.80135679       0.95175777       0.60584060 </v>
   <v>       0.53799091       0.00010556       0.40450275 </v>
   <v>       0.60696985       0.28568938       0.60508070 </v>
   <v>       0.86154611       0.97648891       0.36920633 </v>
   <v>       0.09491131       0.12143090       0.46708233 </v>
   <v>       0.17149230       0.17629711       0.53097110 </v>
   <v>       0.64098865       0.67684678       0.45481558 </v>
   <v>       0.43678778       0.38217655       0.38641325 </v>
   <v>       0.57420705       0.03057126       0.57101116 </v>
   <v>       0.15143775       0.56581609       0.38895836 </v>
   <v>       0.26773979       0.57474560       0.39230630 </v>
   <v>       0.44025846       0.29460625       0.47032443 </v>
   <v>       0.23800967       0.13091919       0.42990119 </v>
   <v>       0.07303228       0.12189051       0.56242416 </v>
   <v>       0.84599604       0.51768758       0.59960738 </v>
   <v>       0.62117943       0.25234794       0.41090545 </v>
   <v>       0.60266699       0.86393473       0.46722346 </v>
   <v>       0.03138539       0.16769789       0.38899188 </v>
   <v>       0.60699022       0.16808268       0.54750090 </v>
   <v>       0.13279973       0.91076271       0.47948708 </v>
   <v>       0.08010533       0.25268075       0.51200003 </v>
   <v>       0.37270272       0.07639798       0.56828638 </v>
   <v>       0.06610216       0.66891693       0.53572298 </v>
   <v>       0.66648838       0.38779294       0.43001156 </v>
   <v>       0.80031055       0.70289961       0.56419183 </v>
   <v>       0.70383856       0.92961650       0.47018456 </v>
   <v>       0.60158942       0.60749963       0.55169725 </v>
   <v>       0.72284030       0.26609272       0.45166811 </v>
   <v>       0.97736693       0.28641467       0.54710042 </v>
   <v>       0.15810978       0.60253195       0.57069561 </v>
   <v>       0.63333384       0.29919114       0.50780070 </v>
   <v>       0.82138926       0.37031395       0.60651163 </v>
   <v>       0.95857820       0.99965111       0.41695300 </v>
   <v>       0.28210683       0.16738168       0.51858639 </v>
   <v>       0.24925755       0.41544095       0.46105570 </v>
   <v>       0.27147671       0.82213919       0.56863850 </v>
   <v>       0.20366815       0.65798123       0.48688872 </v>
   <v>       0.14712345       0.44847794       0.49254493 </v>
   <v>       0.22500760       0.39538654       0.55676008 </v>
   <v>       0.91141698       0.42515266       0.47371881 </v>
   <v>       0.86978818       0.67696817       0.46415352 </v>
   <v>       0.73812021       0.06524268       0.44522965 </v>
   <v>       0.22218344       0.90218925       0.40794682 </v>
   <v>       0.25416993       0.37460562       0.64872122 </v>
   <v>       0.63129259       0.85662528       0.59293883 </v>
   <v>       0.41022327       0.76147046       0.42343739 </v>
   <v>       0.91777135       0.16844636       0.50824515 </v>
   <v>       0.13254706       0.41594418       0.33227266 </v>
   <v>       0.15514768       0.27593132       0.31056042 </v>
   <v>       0.37300515       0.10331511       0.34795342 </v>
   <v>       0.03505491       0.26492627       0.63298392 </v>
   <v>       0.57268926       0.22927626       0.32009968 </v>
   <v>       0.24525419       0.74269296       0.65024445 </v>
   <v>       0.20737430       0.62081311       0.31036906 </v>
   <v>       0.27537441       0.36459936       0.36737583 </v>
   <v>       0.36535081       0.56999470       0.34222079 </v>
   <v>       0.22638085       0.02858889       0.35811888 </v>
   <v>       0.24120333       0.16848629       0.32934297 </v>
   <v>       0.50127293       0.86470969       0.45484168 </v>
   <v>       0.55047957       0.80003257       0.53434742 </v>
   <v>       0.54734613       0.62357506       0.63151534 </v>
   <v>       0.47834364       0.09396586       0.59610351 </v>
   <v>       0.26222291       0.66703092       0.56873703 </v>
   <v>       0.44342035       0.81832556       0.58205386 </v>
   <v>       0.76690901       0.58978528       0.65004672 </v>
   <v>       0.84571441       0.80521295       0.62272906 </v>
   <v>       0.64216489       0.71356729       0.62088522 </v>
   <v>       0.00790692       0.00563273       0.60300902 </v>
   <v>       0.28462383       0.97418201       0.59369855 </v>
   <v>       0.50353504       0.94380115       0.62869719 </v>
   <v>       0.47756643       0.40753171       0.73436115 </v>
   <v>       0.08322528       0.57882837       0.40641308 </v>
   <v>       0.40940692       0.73669376       0.57539695 </v>
   <v>       0.84176382       0.41386118       0.46783897 </v>
   <v>       0.01708949       0.96289010       0.39361135 </v>
   <v>       0.01470021       0.25659834       0.39108141 </v>
   <v>       0.00940585       0.08713341       0.57237871 </v>
   <v>       0.61198489       0.63216177       0.60929955 </v>
   <v>       0.21401283       0.44846881       0.50969905 </v>
   <v>       0.91506213       0.72796900       0.49625454 </v>
   <v>       0.52057854       0.08286369       0.42598659 </v>
   <v>       0.41862505       0.14153321       0.58884123 </v>
   <v>       0.08345253       0.11158014       0.40698087 </v>
   <v>       0.70189793       0.01725432       0.48732303 </v>
   <v>       0.66505935       0.87044553       0.43747644 </v>
   <v>       0.65009874       0.47643512       0.43015089 </v>
   <v>       0.19846065       0.88489030       0.46399069 </v>
   <v>       0.21510523       0.33944855       0.60370556 </v>
   <v>       0.67484376       0.78749721       0.59432010 </v>
   <v>       0.21651490       0.61422385       0.53864238 </v>
   <v>       0.36878912       0.70753580       0.45920930 </v>
   <v>       0.79812943       0.86174429       0.59565084 </v>
   <v>       0.87980185       0.88471581       0.51190506 </v>
   <v>       0.57690114       0.54753744       0.51215130 </v>
   <v>       0.58979540       0.08793695       0.52524089 </v>
   <v>       0.85812234       0.12452130       0.49517595 </v>
   <v>       0.83687929       0.57692732       0.64595787 </v>
   <v>       0.13373852       0.33272697       0.35687228 </v>
   <v>       0.79065529       0.25234731       0.44187265 </v>
   <v>       0.39917610       0.14990291       0.39600320 </v>
   <v>       0.85694831       0.72347183       0.59655463 </v>
   <v>       0.28283403       0.90682255       0.54967663 </v>
   <v>       0.02307473       0.30285558       0.50224551 </v>
   <v>       0.57455938       0.66789815       0.43556436 </v>
   <v>       0.23024095       0.72500856       0.45196954 </v>
   <v>       0.59365386       0.25690913       0.54851590 </v>
   <v>       0.97552079       0.24466623       0.60252266 </v>
   <v>       0.88890636       0.99781706       0.42420019 </v>
   <v>       0.10475877       0.16772641       0.51782205 </v>
   <v>       0.04814566       0.70544516       0.48263019 </v>
   <v>       0.23208999       0.17819050       0.56102467 </v>
   <v>       0.56140781       0.23019333       0.38122611 </v>
   <v>       0.47907254       0.59877085       0.62316812 </v>
   <v>       0.28108144       0.74311675       0.59785618 </v>
   <v>       0.20850083       0.61580791       0.37179454 </v>
   <v>       0.74132269       0.68420249       0.53589029 </v>
   <v>       0.98650016       0.96279937       0.55034822 </v>
   <v>       0.70310456       0.70922622       0.43426040 </v>
   <v>       0.78820270       0.03221439       0.57671029 </v>
   <v>       0.45631390       0.30085966       0.40928789 </v>
   <v>       0.44986806       0.90747574       0.59459384 </v>
   <v>       0.50859569       0.01289768       0.58606194 </v>
   <v>       0.24424715       0.34281439       0.42094710 </v>
   <v>       0.65852534       0.30241018       0.45034791 </v>
   <v>       0.46005899       0.29109959       0.52888151 </v>
   <v>       0.33729937       0.56235061       0.39908301 </v>
   <v>       0.80429736       0.44961341       0.57997432 </v>
   <v>       0.06920979       0.87126722       0.48050551 </v>
   <v>       0.21190758       0.11686239       0.37359659 </v>
   <v>       0.07823286       0.46639306       0.49468762 </v>
   <v>       0.55757019       0.82474816       0.47473025 </v>
   <v>       0.71995699       0.55800742       0.60983855 </v>
   <v>       0.28664212       0.18250980       0.45911077 </v>
   <v>       0.08792762       0.59775854       0.56775066 </v>
   <v>       0.35366063       0.99086164       0.57824948 </v>
   <v>       0.48496974       0.45341968       0.57261620 </v>
   <v>       0.51344396       0.46576826       0.69506506 </v>
  </varray>
  <varray name="selective"  type="logical" >
   <v type="logical" >  T  T  T </v>
   <v type="logical" >  T  T  T </v>
   <v type="logical" >  T  T  T </v>
   <v type="logical" >  T  T  T </v>
   <v type="logical" >  F  F  F </v>
   <v type="logical" >  F  F  F </v>
   <v type="logical" >  F  F  F </v>
   <v type="logical" >  F  F  F </v>
   <v type="logical" >  F  F  F </v>
   <v type="logical" >  F  F  F </v>
   <v type="logical" >  F  F  F </v>
   <v type="logical" >  F  F  F </v>
   <v type="logical" >  F  F  F </v>
   <v type="logical" >  F  F  F </v>
   <v type="logical" >  F  F  F </v>
   <v type="logical" >  F  F  F </v>
   <v type="logical" >  F  F  F </v>
   <v type="logical" >  F  F  F </v>
   <v type="logical" >  F  F  F </v>
   <v type="logical" >  F  F  F </v>
   <v type="logical" >  F  F  F </v>
   <v type="logical" >  F  F  F </v>
   <v type="logical" >  F  F  F </v>
   <v type="logical" >  F  F  F </v>
   <v type="logical" >  F  F  F </v>
   <v type="logical" >  F  F  F </v>
   <v type="logical" >  F  F  F </v>
   <v type="logical" >  F  F  F </v>
   <v type="logical" >  F  F  F </v>
   <v type="logical" >  F  F  F </v>
   <v type="logical" >  F  F  F </v>
   <v type="logical" >  F  F  F </v>
   <v type="logical" >  F  F  F </v>
   <v type="logical" >  F  F  F </v>
   <v type="logical" >  F  F  F </v>
   <v type="logical" >  F  F  F </v>
   <v type="logical" >  F  F  F </v>
   <v type="logical" >  F  F  F </v>
   <v type="logical" >  F  F  F </v>
   <v type="logical" >  F  F  F </v>
   <v type="logical" >  F  F  F </v>
   <v type="logical" >  F  F  F </v>
   <v type="logical" >  F  F  F </v>
   <v type="logical" >  F  F  F </v>
   <v type="logical" >  F  F  F </v>
   <v type="logical" >  F  F  F </v>
   <v type="logical" >  F  F  F </v>
   <v type="logical" >  F  F  F </v>
   <v type="logical" >  T  T  T </v>
   <v type="logical" >  T  T  T </v>
   <v type="logical" >  T  T  T </v>
   <v type="logical" >  T  T  T </v>
   <v type="logical" >  T  T  T </v>
   <v type="logical" >  T  T  T </v>
   <v type="logical" >  T  T  T </v>
   <v type="logical" >  T  T  T </v>
   <v type="logical" >  F  F  F </v>
   <v type="logical" >  F  F  F </v>
   <v type="logical" >  F  F  F </v>
   <v type="logical" >  F  F  F </v>
   <v type="logical" >  F  F  F </v>
   <v type="logical" >  F  F  F </v>
   <v type="logical" >  F  F  F </v>
   <v type="logical" >  F  F  F </v>
   <v type="logical" >  F  F  F </v>
   <v type="logical" >  F  F  F </v>
   <v type="logical" >  F  F  F </v>
   <v type="logical" >  F  F  F </v>
   <v type="logical" >  F  F  F </v>
   <v type="logical" >  F  F  F </v>
   <v type="logical" >  F  F  F </v>
   <v type="logical" >  F  F  F </v>
   <v type="logical" >  F  F  F </v>
   <v type="logical" >  F  F  F </v>
   <v type="logical" >  F  F  F </v>
   <v type="logical" >  F  F  F </v>
   <v type="logical" >  F  F  F </v>
   <v type="logical" >  F  F  F </v>
   <v type="logical" >  F  F  F </v>
   <v type="logical" >  F  F  F </v>
   <v type="logical" >  F  F  F </v>
   <v type="logical" >  F  F  F </v>
   <v type="logical" >  F  F  F </v>
   <v type="logical" >  F  F  F </v>
   <v type="logical" >  F  F  F </v>
   <v type="logical" >  F  F  F </v>
   <v type="logical" >  F  F  F </v>
   <v type="logical" >  F  F  F </v>
   <v type="logical" >  F  F  F </v>
   <v type="logical" >  F  F  F </v>
   <v type="logical" >  F  F  F </v>
   <v type="logical" >  F  F  F </v>
   <v type="logical" >  F  F  F </v>
   <v type="logical" >  F  F  F </v>
   <v type="logical" >  F  F  F </v>
   <v type="logical" >  F  F  F </v>
   <v type="logical" >  F  F  F </v>
   <v type="logical" >  F  F  F </v>
   <v type="logical" >  F  F  F </v>
   <v type="logical" >  F  F  F </v>
   <v type="logical" >  F  F  F </v>
   <v type="logical" >  F  F  F </v>
   <v type="logical" >  F  F  F </v>
   <v type="logical" >  F  F  F </v>
   <v type="logical" >  F  F  F </v>
   <v type="logical" >  F  F  F </v>
   <v type="logical" >  F  F  F </v>
   <v type="logical" >  F  F  F </v>
   <v type="logical" >  F  F  F </v>
   <v type="logical" >  F  F  F </v>
   <v type="logical" >  F  F  F </v>
   <v type="logical" >  F  F  F </v>
   <v type="logical" >  F  F  F </v>
   <v type="logical" >  F  F  F </v>
   <v type="logical" >  F  F  F </v>
   <v type="logical" >  F  F  F </v>
   <v type="logical" >  F  F  F </v>
   <v type="logical" >  F  F  F </v>
   <v type="logical" >  F  F  F </v>
   <v type="logical" >  F  F  F </v>
   <v type="logical" >  F  F  F </v>
   <v type="logical" >  F  F  F </v>
   <v type="logical" >  F  F  F </v>
   <v type="logical" >  F  F  F </v>
   <v type="logical" >  F  F  F </v>
   <v type="logical" >  F  F  F </v>
   <v type="logical" >  F  F  F </v>
   <v type="logical" >  F  F  F </v>
   <v type="logical" >  F  F  F </v>
[...]
   <v>       0.65496522       0.89780557       0.37922825 </v>
   <v>       0.07629334       0.65843432       0.43588102 </v>
   <v>       0.45142924       0.37825190       0.55095055 </v>
   <v>       0.71921944       0.67282892       0.37958300 </v>
   <v>       0.44931880       0.67564300       0.60338450 </v>
   <v>       0.75255106       0.68173264       0.47629548 </v>
   <v>       0.77940597       0.09404872       0.62058431 </v>
   <v>       0.99327462       0.28042154       0.44840298 </v>
   <v>       0.53387832       0.48282071       0.53318898 </v>
   <v>       0.81677759       0.47146980       0.42344221 </v>
   <v>       0.23671023       0.11755400       0.60527713 </v>
   <v>       0.20353331       0.80310938       0.47053363 </v>
   <v>       0.23975758       0.53135748       0.52290748 </v>
   <v>       0.06105935       0.59765494       0.62389506 </v>
   <v>       0.04607407       0.57475476       0.35417863 </v>
   <v>       0.80135679       0.95175777       0.60584060 </v>
   <v>       0.53799091       0.00010556       0.40450275 </v>
   <v>       0.60696985       0.28568938       0.60508070 </v>
   <v>       0.86154611       0.97648891       0.36920633 </v>
   <v>       0.09491131       0.12143090       0.46708233 </v>
   <v>       0.17149230       0.17629711       0.53097110 </v>
   <v>       0.64098865       0.67684678       0.45481558 </v>
   <v>       0.43678778       0.38217655       0.38641325 </v>
   <v>       0.57420705       0.03057126       0.57101116 </v>
   <v>       0.15143775       0.56581609       0.38895836 </v>
   <v>       0.26773979       0.57474560       0.39230630 </v>
   <v>       0.44025846       0.29460625       0.47032443 </v>
   <v>       0.23800967       0.13091919       0.42990119 </v>
   <v>       0.07303228       0.12189051       0.56242416 </v>
   <v>       0.84599604       0.51768758       0.59960738 </v>
   <v>       0.62117943       0.25234794       0.41090545 </v>
   <v>       0.60266699       0.86393473       0.46722346 </v>
   <v>       0.03138539       0.16769789       0.38899188 </v>
   <v>       0.60699022       0.16808268       0.54750090 </v>
   <v>       0.13279973       0.91076271       0.47948708 </v>
   <v>       0.08010533       0.25268075       0.51200003 </v>
   <v>       0.37270272       0.07639798       0.56828638 </v>
   <v>       0.06610216       0.66891693       0.53572298 </v>
   <v>       0.66648838       0.38779294       0.43001156 </v>
   <v>       0.80031055       0.70289961       0.56419183 </v>
   <v>       0.70383856       0.92961650       0.47018456 </v>
   <v>       0.60158942       0.60749963       0.55169725 </v>
   <v>       0.72284030       0.26609272       0.45166811 </v>
   <v>       0.97736693       0.28641467       0.54710042 </v>
   <v>       0.15810978       0.60253195       0.57069561 </v>
   <v>       0.63333384       0.29919114       0.50780070 </v>
   <v>       0.82138926       0.37031395       0.60651163 </v>
   <v>       0.95857820       0.99965111       0.41695300 </v>
   <v>       0.28210683       0.16738168       0.51858639 </v>
   <v>       0.24925755       0.41544095       0.46105570 </v>
   <v>       0.27147671       0.82213919       0.56863850 </v>
   <v>       0.20366815       0.65798123       0.48688872 </v>
   <v>       0.14712345       0.44847794       0.49254493 </v>
   <v>       0.22500760       0.39538654       0.55676008 </v>
   <v>       0.91141698       0.42515266       0.47371881 </v>
   <v>       0.86978818       0.67696817       0.46415352 </v>
   <v>       0.73812021       0.06524268       0.44522965 </v>
   <v>       0.22218344       0.90218925       0.40794682 </v>
   <v>       0.25416993       0.37460562       0.64872122 </v>
   <v>       0.63129259       0.85662528       0.59293883 </v>
   <v>       0.41022327       0.76147046       0.42343739 </v>
   <v>       0.91777135       0.16844636       0.50824515 </v>
   <v>       0.13254706       0.41594418       0.33227266 </v>
   <v>       0.15514768       0.27593132       0.31056042 </v>
   <v>       0.37300515       0.10331511       0.34795342 </v>
   <v>       0.03505491       0.26492627       0.63298392 </v>
   <v>       0.57268926       0.22927626       0.32009968 </v>
   <v>       0.24525419       0.74269296       0.65024445 </v>
   <v>       0.20737430       0.62081311       0.31036906 </v>
   <v>       0.27537441       0.36459936       0.36737583 </v>
   <v>       0.36535081       0.56999470       0.34222079 </v>
   <v>       0.22638085       0.02858889       0.35811888 </v>
   <v>       0.24120333       0.16848629       0.32934297 </v>
   <v>       0.50127293       0.86470969       0.45484168 </v>
   <v>       0.55047957       0.80003257       0.53434742 </v>
   <v>       0.54734613       0.62357506       0.63151534 </v>
   <v>       0.47834364       0.09396586       0.59610351 </v>
   <v>       0.26222291       0.66703092       0.56873703 </v>
   <v>       0.44342035       0.81832556       0.58205386 </v>
   <v>       0.76690901       0.58978528       0.65004672 </v>
   <v>       0.84571441       0.80521295       0.62272906 </v>
   <v>       0.64216489       0.71356729       0.62088522 </v>
   <v>       0.00790692       0.00563273       0.60300902 </v>
   <v>       0.28462383       0.97418201       0.59369855 </v>
   <v>       0.50353504       0.94380115       0.62869719 </v>
   <v>       0.47756643       0.40753171       0.73436115 </v>
   <v>       0.08322528       0.57882837       0.40641308 </v>
   <v>       0.40940692       0.73669376       0.57539695 </v>
   <v>       0.84176382       0.41386118       0.46783897 </v>
   <v>       0.01708949       0.96289010       0.39361135 </v>
   <v>       0.01470021       0.25659834       0.39108141 </v>
   <v>       0.00940585       0.08713341       0.57237871 </v>
   <v>       0.61198489       0.63216177       0.60929955 </v>
   <v>       0.21401283       0.44846881       0.50969905 </v>
   <v>       0.91506213       0.72796900       0.49625454 </v>
   <v>       0.52057854       0.08286369       0.42598659 </v>
   <v>       0.41862505       0.14153321       0.58884123 </v>
   <v>       0.08345253       0.11158014       0.40698087 </v>
   <v>       0.70189793       0.01725432       0.48732303 </v>
   <v>       0.66505935       0.87044553       0.43747644 </v>
   <v>       0.65009874       0.47643512       0.43015089 </v>
   <v>       0.19846065       0.88489030       0.46399069 </v>
   <v>       0.21510523       0.33944855       0.60370556 </v>
   <v>       0.67484376       0.78749721       0.59432010 </v>
   <v>       0.21651490       0.61422385       0.53864238 </v>
   <v>       0.36878912       0.70753580       0.45920930 </v>
   <v>       0.79812943       0.86174429       0.59565084 </v>
   <v>       0.87980185       0.88471581       0.51190506 </v>
   <v>       0.57690114       0.54753744       0.51215130 </v>
   <v>       0.58979540       0.08793695       0.52524089 </v>
   <v>       0.85812234       0.12452130       0.49517595 </v>
   <v>       0.83687929       0.57692732       0.64595787 </v>
   <v>       0.13373852       0.33272697       0.35687228 </v>
   <v>       0.79065529       0.25234731       0.44187265 </v>
   <v>       0.39917610       0.14990291       0.39600320 </v>
   <v>       0.85694831       0.72347183       0.59655463 </v>
   <v>       0.28283403       0.90682255       0.54967663 </v>
   <v>       0.02307473       0.30285558       0.50224551 </v>
   <v>       0.57455938       0.66789815       0.43556436 </v>
   <v>       0.23024095       0.72500856       0.45196954 </v>
   <v>       0.59365386       0.25690913       0.54851590 </v>
   <v>       0.97552079       0.24466623       0.60252266 </v>
   <v>       0.88890636       0.99781706       0.42420019 </v>
   <v>       0.10475877       0.16772641       0.51782205 </v>
   <v>       0.04814566       0.70544516       0.48263019 </v>
   <v>       0.23208999       0.17819050       0.56102467 </v>
   <v>       0.56140781       0.23019333       0.38122611 </v>
   <v>       0.47907254       0.59877085       0.62316812 </v>
   <v>       0.28108144       0.74311675       0.59785618 </v>
   <v>       0.20850083       0.61580791       0.37179454 </v>
   <v>       0.74132269       0.68420249       0.53589029 </v>
   <v>       0.98650016       0.96279937       0.55034822 </v>
   <v>       0.70310456       0.70922622       0.43426040 </v>
   <v>       0.78820270       0.03221439       0.57671029 </v>
   <v>       0.45631390       0.30085966       0.40928789 </v>
   <v>       0.44986806       0.90747574       0.59459384 </v>
   <v>       0.50859569       0.01289768       0.58606194 </v>
   <v>       0.24424715       0.34281439       0.42094710 </v>
   <v>       0.65852534       0.30241018       0.45034791 </v>
   <v>       0.46005899       0.29109959       0.52888151 </v>
   <v>       0.33729937       0.56235061       0.39908301 </v>
   <v>       0.80429736       0.44961341       0.57997432 </v>
   <v>       0.06920979       0.87126722       0.48050551 </v>
   <v>       0.21190758       0.11686239       0.37359659 </v>
   <v>       0.07823286       0.46639306       0.49468762 </v>
   <v>       0.55757019       0.82474816       0.47473025 </v>
   <v>       0.71995699       0.55800742       0.60983855 </v>
   <v>       0.28664212       0.18250980       0.45911077 </v>
   <v>       0.08792762       0.59775854       0.56775066 </v>
   <v>       0.35366063       0.99086164       0.57824948 </v>
   <v>       0.48496974       0.45341968       0.57261620 </v>
   <v>       0.51344396       0.46576826       0.69450709 </v>
  </varray>
  <varray name="selective"  type="logical" >
   <v type="logical" >  T  T  T </v>
   <v type="logical" >  T  T  T </v>
   <v type="logical" >  T  T  T </v>
   <v type="logical" >  T  T  T </v>
   <v type="logical" >  F  F  F </v>
   <v type="logical" >  F  F  F </v>
   <v type="logical" >  F  F  F </v>
   <v type="logical" >  F  F  F </v>
   <v type="logical" >  F  F  F </v>
   <v type="logical" >  F  F  F </v>
   <v type="logical" >  F  F  F </v>
   <v type="logical" >  F  F  F </v>
   <v type="logical" >  F  F  F </v>
   <v type="logical" >  F  F  F </v>
   <v type="logical" >  F  F  F </v>
   <v type="logical" >  F  F  F </v>
   <v type="logical" >  F  F  F </v>
   <v type="logical" >  F  F  F </v>
   <v type="logical" >  F  F  F </v>
   <v type="logical" >  F  F  F </v>
   <v type="logical" >  F  F  F </v>
   <v type="logical" >  F  F  F </v>
   <v type="logical" >  F  F  F </v>
   <v type="logical" >  F  F  F </v>
   <v type="logical" >  F  F  F </v>
   <v type="logical" >  F  F  F </v>
   <v type="logical" >  F  F  F </v>
   <v type="logical" >  F  F  F </v>
   <v type="logical" >  F  F  F </v>
   <v type="logical" >  F  F  F </v>
   <v type="logical" >  F  F  F </v>
   <v type="logical" >  F  F  F </v>
   <v type="logical" >  F  F  F </v>
   <v type="logical" >  F  F  F </v>
   <v type="logical" >  F  F  F </v>
   <v type="logical" >  F  F  F </v>
   <v type="logical" >  F  F  F </v>
   <v type="logical" >  F  F  F </v>
   <v type="logical" >  F  F  F </v>
   <v type="logical" >  F  F  F </v>
   <v type="logical" >  F  F  F </v>
   <v type="logical" >  F  F  F </v>
   <v type="logical" >  F  F  F </v>
   <v type="logical" >  F  F  F </v>
   <v type="logical" >  F  F  F </v>
   <v type="logical" >  F  F  F </v>
   <v type="logical" >  F  F  F </v>
   <v type="logical" >  F  F  F </v>
   <v type="logical" >  T  T  T </v>
   <v type="logical" >  T  T  T </v>
   <v type="logical" >  T  T  T </v>
   <v type="logical" >  T  T  T </v>
   <v type="logical" >  T  T  T </v>
   <v type="logical" >  T  T  T </v>
   <v type="logical" >  T  T  T </v>
   <v type="logical" >  T  T  T </v>
   <v type="logical" >  F  F  F </v>
   <v type="logical" >  F  F  F </v>
   <v type="logical" >  F  F  F </v>
   <v type="logical" >  F  F  F </v>
   <v type="logical" >  F  F  F </v>
   <v type="logical" >  F  F  F </v>
   <v type="logical" >  F  F  F </v>
   <v type="logical" >  F  F  F </v>
   <v type="logical" >  F  F  F </v>
   <v type="logical" >  F  F  F </v>
   <v type="logical" >  F  F  F </v>
   <v type="logical" >  F  F  F </v>
   <v type="logical" >  F  F  F </v>
   <v type="logical" >  F  F  F </v>
   <v type="logical" >  F  F  F </v>
   <v type="logical" >  F  F  F </v>
   <v type="logical" >  F  F  F </v>
   <v type="logical" >  F  F  F </v>
   <v type="logical" >  F  F  F </v>
   <v type="logical" >  F  F  F </v>
   <v type="logical" >  F  F  F </v>
   <v type="logical" >  F  F  F </v>
   <v type="logical" >  F  F  F </v>
   <v type="logical" >  F  F  F </v>
   <v type="logical" >  F  F  F </v>
   <v type="logical" >  F  F  F </v>
   <v type="logical" >  F  F  F </v>
   <v type="logical" >  F  F  F </v>
   <v type="logical" >  F  F  F </v>
   <v type="logical" >  F  F  F </v>
   <v type="logical" >  F  F  F </v>
   <v type="logical" >  F  F  F </v>
   <v type="logical" >  F  F  F </v>
   <v type="logical" >  F  F  F </v>
   <v type="logical" >  F  F  F </v>
   <v type="logical" >  F  F  F </v>
   <v type="logical" >  F  F  F </v>
   <v type="logical" >  F  F  F </v>
   <v type="logical" >  F  F  F </v>
   <v type="logical" >  F  F  F </v>
   <v type="logical" >  F  F  F </v>
   <v type="logical" >  F  F  F </v>
   <v type="logical" >  F  F  F </v>
   <v type="logical" >  F  F  F </v>
   <v type="logical" >  F  F  F </v>
   <v type="logical" >  F  F  F </v>
   <v type="logical" >  F  F  F </v>
   <v type="logical" >  F  F  F </v>
   <v type="logical" >  F  F  F </v>
   <v type="logical" >  F  F  F </v>
   <v type="logical" >  F  F  F </v>
   <v type="logical" >  F  F  F </v>
   <v type="logical" >  F  F  F </v>
   <v type="logical" >  F  F  F </v>
   <v type="logical" >  F  F  F </v>
   <v type="logical" >  F  F  F </v>
   <v type="logical" >  F  F  F </v>
   <v type="logical" >  F  F  F </v>
   <v type="logical" >  F  F  F </v>
   <v type="logical" >  F  F  F </v>
   <v type="logical" >  F  F  F </v>
   <v type="logical" >  F  F  F </v>
   <v type="logical" >  F  F  F </v>
   <v type="logical" >  F  F  F </v>
   <v type="logical" >  F  F  F </v>
   <v type="logical" >  F  F  F </v>
   <v type="logical" >  F  F  F </v>
   <v type="logical" >  F  F  F </v>
   <v type="logical" >  F  F  F </v>
   <v type="logical" >  F  F  F </v>
   <v type="logical" >  F  F  F </v>
   <v type="logical" >  F  F  F </v>
   <v type="logical" >  F  F  F </v>
   <v type="logical" >  F  F  F </v>
   <v type="logical" >  F  F  F </v>
   <v type="logical" >  F  F  F </v>
   <v type="logical" >  F  F  F </v>
   <v type="logical" >  F  F  F </v>
   <v type="logical" >  F  F  F </v>
   <v type="logical" >  F  F  F </v>
   <v type="logical" >  F  F  F </v>
   <v type="logical" >  F  F  F </v>
   <v type="logical" >  F  F  F </v>
   <v type="logical" >  F  F  F </v>
   <v type="logical" >  F  F  F </v>
   <v type="logical" >  F  F  F </v>
   <v type="logical" >  F  F  F </v>
   <v type="logical" >  F  F  F </v>
   <v type="logical" >  F  F  F </v>
   <v type="logical" >  F  F  F </v>
   <v type="logical" >  F  F  F </v>
   <v type="logical" >  F  F  F </v>
   <v type="logical" >  F  F  F </v>
   <v type="logical" >  F  F  F </v>
   <v type="logical" >  F  F  F </v>
   <v type="logical" >  F  F  F </v>
   <v type="logical" >  F  F  F </v>
   <v type="logical" >  F  F  F </v>
   <v type="logical" >  F  F  F </v>
   <v type="logical" >  F  F  F </v>
   <v type="logical" >  F  F  F </v>
   <v type="logical" >  F  F  F </v>
   <v type="logical" >  F  F  F </v>
   <v type="logical" >  F  F  F </v>
   <v type="logical" >  F  F  F </v>
   <v type="logical" >  F  F  F </v>
   <v type="logical" >  F  F  F </v>
   <v type="logical" >  F  F  F </v>
   <v type="logical" >  F  F  F </v>
   <v type="logical" >  F  F  F </v>
   <v type="logical" >  F  F  F </v>
   <v type="logical" >  F  F  F </v>
   <v type="logical" >  F  F  F </v>
   <v type="logical" >  F  F  F </v>
   <v type="logical" >  F  F  F </v>
   <v type="logical" >  F  F  F </v>
   <v type="logical" >  F  F  F </v>
   <v type="logical" >  F  F  F </v>
   <v type="logical" >  F  F  F </v>
   <v type="logical" >  F  F  F </v>
   <v type="logical" >  F  F  F </v>
   <v type="logical" >  F  F  F </v>
   <v type="logical" >  F  F  F </v>
   <v type="logical" >  F  F  F </v>
   <v type="logical" >  F  F  F </v>
   <v type="logical" >  F  F  F </v>
   <v type="logical" >  F  F  F </v>
   <v type="logical" >  F  F  F </v>
   <v type="logical" >  F  F  F </v>
   <v type="logical" >  F  F  F </v>
   <v type="logical" >  F  F  F </v>
   <v type="logical" >  F  F  F </v>
   <v type="logical" >  F  F  F </v>
   <v type="logical" >  F  F  F </v>
   <v type="logical" >  F  F  F </v>
   <v type="logical" >  F  F  F </v>
   <v type="logical" >  F  F  F </v>
   <v type="logical" >  F  F  F </v>
   <v type="logical" >  F  F  F </v>
   <v type="logical" >  F  F  F </v>
   <v type="logical" >  F  F  F </v>
   <v type="logical" >  F  F  F </v>
   <v type="logical" >  F  F  F </v>
   <v type="logical" >  F  F  F </v>
   <v type="logical" >  F  F  F </v>
   <v type="logical" >  F  F  F </v>
   <v type="logical" >  F  F  F </v>
   <v type="logical" >  F  F  F </v>
   <v type="logical" >  F  F  F </v>
   <v type="logical" >  F  F  F </v>
   <v type="logical" >  F  F  F </v>
   <v type="logical" >  F  F  F </v>
   <v type="logical" >  F  F  F </v>
   <v type="logical" >  T  T  T </v>
   <v type="logical" >  F  F  F </v>
   <v type="logical" >  F  F  F </v>
   <v type="logical" >  F  F  F </v>
   <v type="logical" >  F  F  F </v>
   <v type="logical" >  F  F  F </v>
   <v type="logical" >  F  F  F </v>
   <v type="logical" >  F  F  F </v>
   <v type="logical" >  F  F  F </v>
   <v type="logical" >  F  F  F </v>
   <v type="logical" >  F  F  F </v>
   <v type="logical" >  F  F  F </v>
   <v type="logical" >  F  F  F </v>
   <v type="logical" >  F  F  F </v>
   <v type="logical" >  F  F  F </v>
   <v type="logical" >  F  F  F </v>
   <v type="logical" >  F  F  F </v>
   <v type="logical" >  F  F  F </v>
   <v type="logical" >  F  F  F </v>
   <v type="logical" >  F  F  F </v>
   <v type="logical" >  F  F  F </v>
   <v type="logical" >  F  F  F </v>
   <v type="logical" >  F  F  F </v>
   <v type="logical" >  F  F  F </v>
   <v type="logical" >  F  F  F </v>
   <v type="logical" >  F  F  F </v>
   <v type="logical" >  F  F  F </v>
   <v type="logical" >  F  F  F </v>
   <v type="logical" >  F  F  F </v>
   <v type="logical" >  F  F  F </v>
   <v type="logical" >  F  F  F </v>
   <v type="logical" >  F  F  F </v>
   <v type="logical" >  F  F  F </v>
   <v type="logical" >  F  F  F </v>
   <v type="logical" >  F  F  F </v>
   <v type="logical" >  F  F  F </v>
   <v type="logical" >  F  F  F </v>
   <v type="logical" >  F  F  F </v>
   <v type="logical" >  F  F  F </v>
   <v type="logical" >  F  F  F </v>
   <v type="logical" >  F  F  F </v>
   <v type="logical" >  F  F  F </v>
   <v type="logical" >  F  F  F </v>
   <v type="logical" >  F  F  F </v>
   <v type="logical" >  F  F  F </v>
   <v type="logical" >  F  F  F </v>
   <v type="logical" >  F  F  F </v>
   <v type="logical" >  F  F  F </v>
   <v type="logical" >  F  F  F </v>
   <v type="logical" >  F  F  F </v>
   <v type="logical" >  F  F  F </v>
   <v type="logical" >  F  F  F </v>
   <v type="logical" >  F  F  F </v>
   <v type="logical" >  F  F  F </v>
   <v type="logical" >  F  F  F </v>
   <v type="logical" >  F  F  F </v>
   <v type="logical" >  F  F  F </v>
   <v type="logical" >  F  F  F </v>
   <v type="logical" >  F  F  F </v>
   <v type="logical" >  F  F  F </v>
   <v type="logical" >  F  F  F </v>
   <v type="logical" >  F  F  F </v>
   <v type="logical" >  F  F  F </v>
   <v type="logical" >  F  F  F </v>
   <v type="logical" >  F  F  F </v>
   <v type="logical" >  F  F  F </v>
   <v type="logical" >  T  T  T </v>
  </varray>
  <nose>
   <v>      -3.00000000       0.00000000       0.00010000       0.00010000 </v>
  </nose>
 </structure>
</modeling>
