unknown system                          
           1
    23.411295    0.000000    0.000000
     0.000000   18.121237    0.000000
     0.000000    0.000000   26.883367
   C    H    O    Si   W 
   4  52 154  65   1
Direct configuration=     1
   0.59170359  0.43673464  0.70452550
   0.49287663  0.62932930  0.79024525
   0.54687667  0.61013727  0.76316532
   0.58227708  0.55394266  0.77523349
   0.76084072  0.07720805  0.65075142
   0.92642768  0.25107703  0.35633493
   0.79333970  0.17968696  0.37345652
   0.97453911  0.91601666  0.32530279
   0.62573266  0.93588091  0.37523120
   0.82053840  0.96741473  0.36899263
   0.74999307  0.11358682  0.45803819
   0.91551268  0.22186232  0.50946317
   0.58349286  0.27667161  0.30592717
   0.89227679  0.30762585  0.61665110
   0.58762300  0.33000123  0.61662950
   0.59434949  0.84396344  0.57746929
   0.03356632  0.30991035  0.65255289
   0.93527051  0.39192229  0.45410146
   0.74613838  0.50272006  0.42248819
   0.79936432  0.35620478  0.63555694
   0.59110202  0.54109089  0.37803474
   0.71843379  0.61834085  0.38346059
   0.84115291  0.51483466  0.41959617
   0.00476455  0.57620621  0.35777830
   0.82835870  0.68476474  0.46794226
   0.87983481  0.57197369  0.72081058
   0.51999031  0.95797283  0.42170307
   0.22309457  0.95256290  0.39320502
   0.21637369  0.21025952  0.31923033
   0.15750105  0.30221429  0.27898292
   0.34154688  0.12799377  0.33077276
   0.22271586  0.01816699  0.32273843
   0.51161322  0.79835580  0.54703958
   0.37532151  0.21192928  0.64675593
   0.24448999  0.06554792  0.59848731
   0.31538097  0.45954453  0.44243467
   0.40895618  0.41114292  0.40569060
   0.39849950  0.76552167  0.38878680
   0.24420236  0.62783814  0.29432688
   0.31174138  0.39088378  0.36925764
   0.40547429  0.55668772  0.33881989
   0.13935762  0.46038171  0.35192946
   0.59326935  0.67039519  0.35239799
   0.46900683  0.83383553  0.44382838
   0.12236422  0.29727895  0.61301273
   0.07395270  0.63599281  0.64635599
   0.24367425  0.36018714  0.68220276
   0.24616894  0.78792536  0.66954967
   0.60426100  0.39437619  0.73155715
   0.62769031  0.46375735  0.68577632
   0.49871415  0.68232225  0.80987836
   0.48159300  0.58693757  0.81782742
   0.45714976  0.63654078  0.76407063
   0.55877787  0.64600507  0.73209027
   0.62300687  0.54641521  0.75638025
   0.57297194  0.51666446  0.80615406
   0.36894173  0.62076316  0.43900002
   0.34681565  0.47644193  0.42038813
   0.86256877  0.53923408  0.69660370
   0.34879268  0.92991200  0.53058764
   0.03320152  0.90446212  0.52853448
   0.63635548  0.05127661  0.48937667
   0.06864615  0.02467349  0.39511073
   0.45189954  0.10197039  0.42059728
   0.80588415  0.18605824  0.48316661
   0.97374478  0.15391747  0.59872583
   0.27476529  0.27158094  0.44851223
   0.55635417  0.74749936  0.44175101
   0.39194221  0.94409397  0.61954350
   0.17751724  0.32237651  0.40527312
   0.86746601  0.65771392  0.63749465
   0.86569601  0.93958500  0.46703846
   0.30104714  0.73334490  0.45792526
   0.42161095  0.23366028  0.37959630
   0.81147047  0.43753779  0.52037032
   0.98372109  0.04478543  0.52108607
   0.51003273  0.42787951  0.62699148
   0.03453641  0.89235583  0.42940526
   0.96303654  0.27560337  0.35125762
   0.06962669  0.30851383  0.37637178
   0.20829566  0.70105236  0.39536010
   0.03890126  0.39150998  0.49910875
   0.23929783  0.25833801  0.58782235
   0.39743436  0.16683517  0.64438317
   0.45415727  0.53561379  0.58299398
   0.91076411  0.72181798  0.55757941
   0.86912727  0.08045141  0.44227833
   0.57257679  0.63973992  0.37613173
   0.14242656  0.13153356  0.37597224
   0.35020405  0.73903921  0.60667352
   0.91099605  0.81745564  0.48317962
   0.06133801  0.50927977  0.44225348
   0.70833903  0.52757462  0.41995768
   0.07548726  0.78921487  0.48299416
   0.70046477  0.79996378  0.43263529
   0.73041662  0.02153674  0.54300441
   0.91934486  0.27388998  0.63228702
   0.73599004  0.82606972  0.61328316
   0.62512195  0.49980207  0.48637871
   0.55657330  0.60211110  0.46724942
   0.42582159  0.21931272  0.55534165
   0.97829009  0.70065170  0.47679564
   0.65569352  0.56863716  0.63342732
   0.39729647  0.71802956  0.51570464
   0.60269007  0.49007352  0.38567099
   0.72127788  0.60452646  0.55754523
   0.14802918  0.33753059  0.62155423
   0.06624110  0.52062096  0.54216555
   0.81875331  0.85758338  0.53650139
   0.82821553  0.32779321  0.45190334
   0.52733719  0.27190221  0.53288766
   0.73783968  0.47223919  0.59575645
   0.55743394  0.14483917  0.39490854
   0.80596408  0.22882063  0.38329286
   0.23744622  0.92565881  0.50791956
   0.69388297  0.74994062  0.54121738
   0.92368737  0.92234797  0.55289778
   0.52573722  0.29018918  0.39855594
   0.46847663  0.96187898  0.54630620
   0.83811005  0.06723760  0.53982245
   0.53790325  0.08882555  0.48623709
   0.35019344  0.15901680  0.43963639
   0.01176032  0.93482196  0.33524376
   0.46992324  0.55821144  0.67743794
   0.65496522  0.89780557  0.37922825
   0.07629334  0.65843432  0.43588102
   0.45142924  0.37825190  0.55095055
   0.71921944  0.67282892  0.37958300
   0.44931880  0.67564300  0.60338450
   0.75255106  0.68173264  0.47629548
   0.77940597  0.09404872  0.62058431
   0.99327462  0.28042154  0.44840298
   0.53387832  0.48282071  0.53318898
   0.81677759  0.47146980  0.42344221
   0.23671023  0.11755400  0.60527713
   0.20353331  0.80310938  0.47053363
   0.23975758  0.53135748  0.52290748
   0.06105935  0.59765494  0.62389506
   0.04607407  0.57475476  0.35417863
   0.80135679  0.95175777  0.60584060
   0.53799091  0.00010556  0.40450275
   0.60696985  0.28568938  0.60508070
   0.86154611  0.97648891  0.36920633
   0.09491131  0.12143090  0.46708233
   0.17149230  0.17629711  0.53097110
   0.64098865  0.67684678  0.45481558
   0.43678778  0.38217655  0.38641325
   0.57420705  0.03057126  0.57101116
   0.15143775  0.56581609  0.38895836
   0.26773979  0.57474560  0.39230630
   0.44025846  0.29460625  0.47032443
   0.23800967  0.13091919  0.42990119
   0.07303228  0.12189051  0.56242416
   0.84599604  0.51768758  0.59960738
   0.62117943  0.25234794  0.41090545
   0.60266699  0.86393473  0.46722346
   0.03138539  0.16769789  0.38899188
   0.60699022  0.16808268  0.54750090
   0.13279973  0.91076271  0.47948708
   0.08010533  0.25268075  0.51200003
   0.37270272  0.07639798  0.56828638
   0.06610216  0.66891693  0.53572298
   0.66648838  0.38779294  0.43001156
   0.80031055  0.70289961  0.56419183
   0.70383856  0.92961650  0.47018456
   0.60158942  0.60749963  0.55169725
   0.72284030  0.26609272  0.45166811
   0.97736693  0.28641467  0.54710042
   0.15810978  0.60253195  0.57069561
   0.63333384  0.29919114  0.50780070
   0.82138926  0.37031395  0.60651163
   0.95857820  0.99965111  0.41695300
   0.28210683  0.16738168  0.51858639
   0.24925755  0.41544095  0.46105570
   0.27147671  0.82213919  0.56863850
   0.20366815  0.65798123  0.48688872
   0.14712345  0.44847794  0.49254493
   0.22500760  0.39538654  0.55676008
   0.91141698  0.42515266  0.47371881
   0.86978818  0.67696817  0.46415352
   0.73812021  0.06524268  0.44522965
   0.22218344  0.90218925  0.40794682
   0.25416993  0.37460562  0.64872122
   0.63129259  0.85662528  0.59293883
   0.41022327  0.76147046  0.42343739
   0.91777135  0.16844636  0.50824515
   0.13254706  0.41594418  0.33227266
   0.15514768  0.27593132  0.31056042
   0.37300515  0.10331511  0.34795342
   0.03505491  0.26492627  0.63298392
   0.57268926  0.22927626  0.32009968
   0.24525419  0.74269296  0.65024445
   0.20737430  0.62081311  0.31036906
   0.27537441  0.36459936  0.36737583
   0.36535081  0.56999470  0.34222079
   0.22638085  0.02858889  0.35811888
   0.24120333  0.16848629  0.32934297
   0.50127293  0.86470969  0.45484168
   0.55047957  0.80003257  0.53434742
   0.54734613  0.62357506  0.63151534
   0.47834364  0.09396586  0.59610351
   0.26222291  0.66703092  0.56873703
   0.44342035  0.81832556  0.58205386
   0.76690901  0.58978528  0.65004672
   0.84571441  0.80521295  0.62272906
   0.64216489  0.71356729  0.62088522
   0.00790692  0.00563273  0.60300902
   0.28462383  0.97418201  0.59369855
   0.50353504  0.94380115  0.62869719
   0.47756643  0.40753171  0.73436115
   0.08322528  0.57882837  0.40641308
   0.40940692  0.73669376  0.57539695
   0.84176382  0.41386118  0.46783897
   0.01708949  0.96289010  0.39361135
   0.01470021  0.25659834  0.39108141
   0.00940585  0.08713341  0.57237871
   0.61198489  0.63216177  0.60929955
   0.21401283  0.44846881  0.50969905
   0.91506213  0.72796900  0.49625454
   0.52057854  0.08286369  0.42598659
   0.41862505  0.14153321  0.58884123
   0.08345253  0.11158014  0.40698087
   0.70189793  0.01725432  0.48732303
   0.66505935  0.87044553  0.43747644
   0.65009874  0.47643512  0.43015089
   0.19846065  0.88489030  0.46399069
   0.21510523  0.33944855  0.60370556
   0.67484376  0.78749721  0.59432010
   0.21651490  0.61422385  0.53864238
   0.36878912  0.70753580  0.45920930
   0.79812943  0.86174429  0.59565084
   0.87980185  0.88471581  0.51190506
   0.57690114  0.54753744  0.51215130
   0.58979540  0.08793695  0.52524089
   0.85812234  0.12452130  0.49517595
   0.83687929  0.57692732  0.64595787
   0.13373852  0.33272697  0.35687228
   0.79065529  0.25234731  0.44187265
   0.39917610  0.14990291  0.39600320
   0.85694831  0.72347183  0.59655463
   0.28283403  0.90682255  0.54967663
   0.02307473  0.30285558  0.50224551
   0.57455938  0.66789815  0.43556436
   0.23024095  0.72500856  0.45196954
   0.59365386  0.25690913  0.54851590
   0.97552079  0.24466623  0.60252266
   0.88890636  0.99781706  0.42420019
   0.10475877  0.16772641  0.51782205
   0.04814566  0.70544516  0.48263019
   0.23208999  0.17819050  0.56102467
   0.56140781  0.23019333  0.38122611
   0.47907254  0.59877085  0.62316812
   0.28108144  0.74311675  0.59785618
   0.20850083  0.61580791  0.37179454
   0.74132269  0.68420249  0.53589029
   0.98650016  0.96279937  0.55034822
   0.70310456  0.70922622  0.43426040
   0.78820270  0.03221439  0.57671029
   0.45631390  0.30085966  0.40928789
   0.44986806  0.90747574  0.59459384
   0.50859569  0.01289768  0.58606194
   0.24424715  0.34281439  0.42094710
   0.65852534  0.30241018  0.45034791
   0.46005899  0.29109959  0.52888151
   0.33729937  0.56235061  0.39908301
   0.80429736  0.44961341  0.57997432
   0.06920979  0.87126722  0.48050551
   0.21190758  0.11686239  0.37359659
   0.07823286  0.46639306  0.49468762
   0.55757019  0.82474816  0.47473025
   0.71995699  0.55800742  0.60983855
   0.28664212  0.18250980  0.45911077
   0.08792762  0.59775854  0.56775066
   0.35366063  0.99086164  0.57824948
   0.48496974  0.45341968  0.57261620
   0.51344396  0.46576826  0.69506506
Direct configuration=     2
   0.59234431  0.43673464  0.70452550
   0.49287663  0.62932930  0.79024525
   0.54687667  0.61013727  0.76316532
   0.58227708  0.55394266  0.77523349
   0.76084072  0.07720805  0.65075142
   0.92642768  0.25107703  0.35633493
   0.79333970  0.17968696  0.37345652
   0.97453911  0.91601666  0.32530279
   0.62573266  0.93588091  0.37523120
   0.82053840  0.96741473  0.36899263
   0.74999307  0.11358682  0.45803819
   0.91551268  0.22186232  0.50946317
   0.58349286  0.27667161  0.30592717
   0.89227679  0.30762585  0.61665110
   0.58762300  0.33000123  0.61662950
   0.59434949  0.84396344  0.57746929
   0.03356632  0.30991035  0.65255289
   0.93527051  0.39192229  0.45410146
   0.74613838  0.50272006  0.42248819
   0.79936432  0.35620478  0.63555694
   0.59110202  0.54109089  0.37803474
   0.71843379  0.61834085  0.38346059
   0.84115291  0.51483466  0.41959617
   0.00476455  0.57620621  0.35777830
   0.82835870  0.68476474  0.46794226
   0.87983481  0.57197369  0.72081058
   0.51999031  0.95797283  0.42170307
   0.22309457  0.95256290  0.39320502
   0.21637369  0.21025952  0.31923033
   0.15750105  0.30221429  0.27898292
   0.34154688  0.12799377  0.33077276
   0.22271586  0.01816699  0.32273843
   0.51161322  0.79835580  0.54703958
   0.37532151  0.21192928  0.64675593
   0.24448999  0.06554792  0.59848731
   0.31538097  0.45954453  0.44243467
   0.40895618  0.41114292  0.40569060
   0.39849950  0.76552167  0.38878680
   0.24420236  0.62783814  0.29432688
   0.31174138  0.39088378  0.36925764
   0.40547429  0.55668772  0.33881989
   0.13935762  0.46038171  0.35192946
   0.59326935  0.67039519  0.35239799
   0.46900683  0.83383553  0.44382838
   0.12236422  0.29727895  0.61301273
   0.07395270  0.63599281  0.64635599
   0.24367425  0.36018714  0.68220276
   0.24616894  0.78792536  0.66954967
   0.60426100  0.39437619  0.73155715
   0.62769031  0.46375735  0.68577632
   0.49871415  0.68232225  0.80987836
   0.48159300  0.58693757  0.81782742
   0.45714976  0.63654078  0.76407063
   0.55877787  0.64600507  0.73209027
   0.62300687  0.54641521  0.75638025
   0.57297194  0.51666446  0.80615406
   0.36894173  0.62076316  0.43900002
   0.34681565  0.47644193  0.42038813
   0.86256877  0.53923408  0.69660370
   0.34879268  0.92991200  0.53058764
   0.03320152  0.90446212  0.52853448
   0.63635548  0.05127661  0.48937667
   0.06864615  0.02467349  0.39511073
   0.45189954  0.10197039  0.42059728
   0.80588415  0.18605824  0.48316661
   0.97374478  0.15391747  0.59872583
   0.27476529  0.27158094  0.44851223
   0.55635417  0.74749936  0.44175101
   0.39194221  0.94409397  0.61954350
   0.17751724  0.32237651  0.40527312
   0.86746601  0.65771392  0.63749465
   0.86569601  0.93958500  0.46703846
   0.30104714  0.73334490  0.45792526
   0.42161095  0.23366028  0.37959630
   0.81147047  0.43753779  0.52037032
   0.98372109  0.04478543  0.52108607
   0.51003273  0.42787951  0.62699148
   0.03453641  0.89235583  0.42940526
   0.96303654  0.27560337  0.35125762
   0.06962669  0.30851383  0.37637178
   0.20829566  0.70105236  0.39536010
   0.03890126  0.39150998  0.49910875
   0.23929783  0.25833801  0.58782235
   0.39743436  0.16683517  0.64438317
   0.45415727  0.53561379  0.58299398
   0.91076411  0.72181798  0.55757941
   0.86912727  0.08045141  0.44227833
   0.57257679  0.63973992  0.37613173
   0.14242656  0.13153356  0.37597224
   0.35020405  0.73903921  0.60667352
   0.91099605  0.81745564  0.48317962
   0.06133801  0.50927977  0.44225348
   0.70833903  0.52757462  0.41995768
   0.07548726  0.78921487  0.48299416
   0.70046477  0.79996378  0.43263529
   0.73041662  0.02153674  0.54300441
   0.91934486  0.27388998  0.63228702
   0.73599004  0.82606972  0.61328316
   0.62512195  0.49980207  0.48637871
   0.55657330  0.60211110  0.46724942
   0.42582159  0.21931272  0.55534165
   0.97829009  0.70065170  0.47679564
   0.65569352  0.56863716  0.63342732
   0.39729647  0.71802956  0.51570464
   0.60269007  0.49007352  0.38567099
   0.72127788  0.60452646  0.55754523
   0.14802918  0.33753059  0.62155423
   0.06624110  0.52062096  0.54216555
   0.81875331  0.85758338  0.53650139
   0.82821553  0.32779321  0.45190334
   0.52733719  0.27190221  0.53288766
   0.73783968  0.47223919  0.59575645
   0.55743394  0.14483917  0.39490854
   0.80596408  0.22882063  0.38329286
   0.23744622  0.92565881  0.50791956
   0.69388297  0.74994062  0.54121738
   0.92368737  0.92234797  0.55289778
   0.52573722  0.29018918  0.39855594
   0.46847663  0.96187898  0.54630620
   0.83811005  0.06723760  0.53982245
   0.53790325  0.08882555  0.48623709
   0.35019344  0.15901680  0.43963639
   0.01176032  0.93482196  0.33524376
   0.46992324  0.55821144  0.67743794
   0.65496522  0.89780557  0.37922825
   0.07629334  0.65843432  0.43588102
   0.45142924  0.37825190  0.55095055
   0.71921944  0.67282892  0.37958300
   0.44931880  0.67564300  0.60338450
   0.75255106  0.68173264  0.47629548
   0.77940597  0.09404872  0.62058431
   0.99327462  0.28042154  0.44840298
   0.53387832  0.48282071  0.53318898
   0.81677759  0.47146980  0.42344221
   0.23671023  0.11755400  0.60527713
   0.20353331  0.80310938  0.47053363
   0.23975758  0.53135748  0.52290748
   0.06105935  0.59765494  0.62389506
   0.04607407  0.57475476  0.35417863
   0.80135679  0.95175777  0.60584060
   0.53799091  0.00010556  0.40450275
   0.60696985  0.28568938  0.60508070
   0.86154611  0.97648891  0.36920633
   0.09491131  0.12143090  0.46708233
   0.17149230  0.17629711  0.53097110
   0.64098865  0.67684678  0.45481558
   0.43678778  0.38217655  0.38641325
   0.57420705  0.03057126  0.57101116
   0.15143775  0.56581609  0.38895836
   0.26773979  0.57474560  0.39230630
   0.44025846  0.29460625  0.47032443
   0.23800967  0.13091919  0.42990119
   0.07303228  0.12189051  0.56242416
   0.84599604  0.51768758  0.59960738
   0.62117943  0.25234794  0.41090545
   0.60266699  0.86393473  0.46722346
   0.03138539  0.16769789  0.38899188
   0.60699022  0.16808268  0.54750090
   0.13279973  0.91076271  0.47948708
   0.08010533  0.25268075  0.51200003
   0.37270272  0.07639798  0.56828638
   0.06610216  0.66891693  0.53572298
   0.66648838  0.38779294  0.43001156
   0.80031055  0.70289961  0.56419183
   0.70383856  0.92961650  0.47018456
   0.60158942  0.60749963  0.55169725
   0.72284030  0.26609272  0.45166811
   0.97736693  0.28641467  0.54710042
   0.15810978  0.60253195  0.57069561
   0.63333384  0.29919114  0.50780070
   0.82138926  0.37031395  0.60651163
   0.95857820  0.99965111  0.41695300
   0.28210683  0.16738168  0.51858639
   0.24925755  0.41544095  0.46105570
   0.27147671  0.82213919  0.56863850
   0.20366815  0.65798123  0.48688872
   0.14712345  0.44847794  0.49254493
   0.22500760  0.39538654  0.55676008
   0.91141698  0.42515266  0.47371881
   0.86978818  0.67696817  0.46415352
   0.73812021  0.06524268  0.44522965
   0.22218344  0.90218925  0.40794682
   0.25416993  0.37460562  0.64872122
   0.63129259  0.85662528  0.59293883
   0.41022327  0.76147046  0.42343739
   0.91777135  0.16844636  0.50824515
   0.13254706  0.41594418  0.33227266
   0.15514768  0.27593132  0.31056042
   0.37300515  0.10331511  0.34795342
   0.03505491  0.26492627  0.63298392
   0.57268926  0.22927626  0.32009968
   0.24525419  0.74269296  0.65024445
   0.20737430  0.62081311  0.31036906
   0.27537441  0.36459936  0.36737583
   0.36535081  0.56999470  0.34222079
   0.22638085  0.02858889  0.35811888
   0.24120333  0.16848629  0.32934297
   0.50127293  0.86470969  0.45484168
   0.55047957  0.80003257  0.53434742
   0.54734613  0.62357506  0.63151534
   0.47834364  0.09396586  0.59610351
   0.26222291  0.66703092  0.56873703
   0.44342035  0.81832556  0.58205386
   0.76690901  0.58978528  0.65004672
   0.84571441  0.80521295  0.62272906
   0.64216489  0.71356729  0.62088522
   0.00790692  0.00563273  0.60300902
   0.28462383  0.97418201  0.59369855
   0.50353504  0.94380115  0.62869719
   0.47756643  0.40753171  0.73436115
   0.08322528  0.57882837  0.40641308
   0.40940692  0.73669376  0.57539695
   0.84176382  0.41386118  0.46783897
   0.01708949  0.96289010  0.39361135
   0.01470021  0.25659834  0.39108141
   0.00940585  0.08713341  0.57237871
   0.61198489  0.63216177  0.60929955
   0.21401283  0.44846881  0.50969905
   0.91506213  0.72796900  0.49625454
   0.52057854  0.08286369  0.42598659
   0.41862505  0.14153321  0.58884123
   0.08345253  0.11158014  0.40698087
   0.70189793  0.01725432  0.48732303
   0.66505935  0.87044553  0.43747644
   0.65009874  0.47643512  0.43015089
   0.19846065  0.88489030  0.46399069
   0.21510523  0.33944855  0.60370556
   0.67484376  0.78749721  0.59432010
   0.21651490  0.61422385  0.53864238
   0.36878912  0.70753580  0.45920930
   0.79812943  0.86174429  0.59565084
   0.87980185  0.88471581  0.51190506
   0.57690114  0.54753744  0.51215130
   0.58979540  0.08793695  0.52524089
   0.85812234  0.12452130  0.49517595
   0.83687929  0.57692732  0.64595787
   0.13373852  0.33272697  0.35687228
   0.79065529  0.25234731  0.44187265
   0.39917610  0.14990291  0.39600320
   0.85694831  0.72347183  0.59655463
   0.28283403  0.90682255  0.54967663
   0.02307473  0.30285558  0.50224551
   0.57455938  0.66789815  0.43556436
   0.23024095  0.72500856  0.45196954
   0.59365386  0.25690913  0.54851590
   0.97552079  0.24466623  0.60252266
   0.88890636  0.99781706  0.42420019
   0.10475877  0.16772641  0.51782205
   0.04814566  0.70544516  0.48263019
   0.23208999  0.17819050  0.56102467
   0.56140781  0.23019333  0.38122611
   0.47907254  0.59877085  0.62316812
   0.28108144  0.74311675  0.59785618
   0.20850083  0.61580791  0.37179454
   0.74132269  0.68420249  0.53589029
   0.98650016  0.96279937  0.55034822
   0.70310456  0.70922622  0.43426040
   0.78820270  0.03221439  0.57671029
   0.45631390  0.30085966  0.40928789
   0.44986806  0.90747574  0.59459384
   0.50859569  0.01289768  0.58606194
   0.24424715  0.34281439  0.42094710
   0.65852534  0.30241018  0.45034791
   0.46005899  0.29109959  0.52888151
   0.33729937  0.56235061  0.39908301
   0.80429736  0.44961341  0.57997432
   0.06920979  0.87126722  0.48050551
   0.21190758  0.11686239  0.37359659
   0.07823286  0.46639306  0.49468762
   0.55757019  0.82474816  0.47473025
   0.71995699  0.55800742  0.60983855
   0.28664212  0.18250980  0.45911077
   0.08792762  0.59775854  0.56775066
   0.35366063  0.99086164  0.57824948
   0.48496974  0.45341968  0.57261620
   0.51344396  0.46576826  0.69506506
Direct configuration=     3
   0.59106288  0.43673464  0.70452550
   0.49287663  0.62932930  0.79024525
   0.54687667  0.61013727  0.76316532
   0.58227708  0.55394266  0.77523349
   0.76084072  0.07720805  0.65075142
   0.92642768  0.25107703  0.35633493
   0.79333970  0.17968696  0.37345652
   0.97453911  0.91601666  0.32530279
   0.62573266  0.93588091  0.37523120
   0.82053840  0.96741473  0.36899263
   0.74999307  0.11358682  0.45803819
   0.91551268  0.22186232  0.50946317
   0.58349286  0.27667161  0.30592717
   0.89227679  0.30762585  0.61665110
   0.58762300  0.33000123  0.61662950
   0.59434949  0.84396344  0.57746929
   0.03356632  0.30991035  0.65255289
   0.93527051  0.39192229  0.45410146
   0.74613838  0.50272006  0.42248819
   0.79936432  0.35620478  0.63555694
   0.59110202  0.54109089  0.37803474
   0.71843379  0.61834085  0.38346059
   0.84115291  0.51483466  0.41959617
   0.00476455  0.57620621  0.35777830
   0.82835870  0.68476474  0.46794226
   0.87983481  0.57197369  0.72081058
   0.51999031  0.95797283  0.42170307
   0.22309457  0.95256290  0.39320502
   0.21637369  0.21025952  0.31923033
   0.15750105  0.30221429  0.27898292
   0.34154688  0.12799377  0.33077276
   0.22271586  0.01816699  0.32273843
   0.51161322  0.79835580  0.54703958
   0.37532151  0.21192928  0.64675593
   0.24448999  0.06554792  0.59848731
   0.31538097  0.45954453  0.44243467
   0.40895618  0.41114292  0.40569060
   0.39849950  0.76552167  0.38878680
   0.24420236  0.62783814  0.29432688
   0.31174138  0.39088378  0.36925764
   0.40547429  0.55668772  0.33881989
   0.13935762  0.46038171  0.35192946
   0.59326935  0.67039519  0.35239799
   0.46900683  0.83383553  0.44382838
   0.12236422  0.29727895  0.61301273
   0.07395270  0.63599281  0.64635599
   0.24367425  0.36018714  0.68220276
   0.24616894  0.78792536  0.66954967
   0.60426100  0.39437619  0.73155715
   0.62769031  0.46375735  0.68577632
   0.49871415  0.68232225  0.80987836
   0.48159300  0.58693757  0.81782742
   0.45714976  0.63654078  0.76407063
   0.55877787  0.64600507  0.73209027
   0.62300687  0.54641521  0.75638025
   0.57297194  0.51666446  0.80615406
   0.36894173  0.62076316  0.43900002
   0.34681565  0.47644193  0.42038813
   0.86256877  0.53923408  0.69660370
   0.34879268  0.92991200  0.53058764
   0.03320152  0.90446212  0.52853448
   0.63635548  0.05127661  0.48937667
   0.06864615  0.02467349  0.39511073
   0.45189954  0.10197039  0.42059728
   0.80588415  0.18605824  0.48316661
   0.97374478  0.15391747  0.59872583
   0.27476529  0.27158094  0.44851223
   0.55635417  0.74749936  0.44175101
   0.39194221  0.94409397  0.61954350
   0.17751724  0.32237651  0.40527312
   0.86746601  0.65771392  0.63749465
   0.86569601  0.93958500  0.46703846
   0.30104714  0.73334490  0.45792526
   0.42161095  0.23366028  0.37959630
   0.81147047  0.43753779  0.52037032
   0.98372109  0.04478543  0.52108607
   0.51003273  0.42787951  0.62699148
   0.03453641  0.89235583  0.42940526
   0.96303654  0.27560337  0.35125762
   0.06962669  0.30851383  0.37637178
   0.20829566  0.70105236  0.39536010
   0.03890126  0.39150998  0.49910875
   0.23929783  0.25833801  0.58782235
   0.39743436  0.16683517  0.64438317
   0.45415727  0.53561379  0.58299398
   0.91076411  0.72181798  0.55757941
   0.86912727  0.08045141  0.44227833
   0.57257679  0.63973992  0.37613173
   0.14242656  0.13153356  0.37597224
   0.35020405  0.73903921  0.60667352
   0.91099605  0.81745564  0.48317962
   0.06133801  0.50927977  0.44225348
   0.70833903  0.52757462  0.41995768
   0.07548726  0.78921487  0.48299416
   0.70046477  0.79996378  0.43263529
   0.73041662  0.02153674  0.54300441
   0.91934486  0.27388998  0.63228702
   0.73599004  0.82606972  0.61328316
   0.62512195  0.49980207  0.48637871
   0.55657330  0.60211110  0.46724942
   0.42582159  0.21931272  0.55534165
   0.97829009  0.70065170  0.47679564
   0.65569352  0.56863716  0.63342732
   0.39729647  0.71802956  0.51570464
   0.60269007  0.49007352  0.38567099
   0.72127788  0.60452646  0.55754523
   0.14802918  0.33753059  0.62155423
   0.06624110  0.52062096  0.54216555
   0.81875331  0.85758338  0.53650139
   0.82821553  0.32779321  0.45190334
   0.52733719  0.27190221  0.53288766
   0.73783968  0.47223919  0.59575645
   0.55743394  0.14483917  0.39490854
   0.80596408  0.22882063  0.38329286
   0.23744622  0.92565881  0.50791956
   0.69388297  0.74994062  0.54121738
   0.92368737  0.92234797  0.55289778
   0.52573722  0.29018918  0.39855594
   0.46847663  0.96187898  0.54630620
   0.83811005  0.06723760  0.53982245
   0.53790325  0.08882555  0.48623709
   0.35019344  0.15901680  0.43963639
   0.01176032  0.93482196  0.33524376
   0.46992324  0.55821144  0.67743794
   0.65496522  0.89780557  0.37922825
   0.07629334  0.65843432  0.43588102
   0.45142924  0.37825190  0.55095055
   0.71921944  0.67282892  0.37958300
   0.44931880  0.67564300  0.60338450
   0.75255106  0.68173264  0.47629548
   0.77940597  0.09404872  0.62058431
   0.99327462  0.28042154  0.44840298
   0.53387832  0.48282071  0.53318898
   0.81677759  0.47146980  0.42344221
   0.23671023  0.11755400  0.60527713
   0.20353331  0.80310938  0.47053363
   0.23975758  0.53135748  0.52290748
   0.06105935  0.59765494  0.62389506
   0.04607407  0.57475476  0.35417863
   0.80135679  0.95175777  0.60584060
   0.53799091  0.00010556  0.40450275
   0.60696985  0.28568938  0.60508070
   0.86154611  0.97648891  0.36920633
   0.09491131  0.12143090  0.46708233
   0.17149230  0.17629711  0.53097110
   0.64098865  0.67684678  0.45481558
   0.43678778  0.38217655  0.38641325
   0.57420705  0.03057126  0.57101116
   0.15143775  0.56581609  0.38895836
   0.26773979  0.57474560  0.39230630
   0.44025846  0.29460625  0.47032443
   0.23800967  0.13091919  0.42990119
   0.07303228  0.12189051  0.56242416
   0.84599604  0.51768758  0.59960738
   0.62117943  0.25234794  0.41090545
   0.60266699  0.86393473  0.46722346
   0.03138539  0.16769789  0.38899188
   0.60699022  0.16808268  0.54750090
   0.13279973  0.91076271  0.47948708
   0.08010533  0.25268075  0.51200003
   0.37270272  0.07639798  0.56828638
   0.06610216  0.66891693  0.53572298
   0.66648838  0.38779294  0.43001156
   0.80031055  0.70289961  0.56419183
   0.70383856  0.92961650  0.47018456
   0.60158942  0.60749963  0.55169725
   0.72284030  0.26609272  0.45166811
   0.97736693  0.28641467  0.54710042
   0.15810978  0.60253195  0.57069561
   0.63333384  0.29919114  0.50780070
   0.82138926  0.37031395  0.60651163
   0.95857820  0.99965111  0.41695300
   0.28210683  0.16738168  0.51858639
   0.24925755  0.41544095  0.46105570
   0.27147671  0.82213919  0.56863850
   0.20366815  0.65798123  0.48688872
   0.14712345  0.44847794  0.49254493
   0.22500760  0.39538654  0.55676008
   0.91141698  0.42515266  0.47371881
   0.86978818  0.67696817  0.46415352
   0.73812021  0.06524268  0.44522965
   0.22218344  0.90218925  0.40794682
   0.25416993  0.37460562  0.64872122
   0.63129259  0.85662528  0.59293883
   0.41022327  0.76147046  0.42343739
   0.91777135  0.16844636  0.50824515
   0.13254706  0.41594418  0.33227266
   0.15514768  0.27593132  0.31056042
   0.37300515  0.10331511  0.34795342
   0.03505491  0.26492627  0.63298392
   0.57268926  0.22927626  0.32009968
   0.24525419  0.74269296  0.65024445
   0.20737430  0.62081311  0.31036906
   0.27537441  0.36459936  0.36737583
   0.36535081  0.56999470  0.34222079
   0.22638085  0.02858889  0.35811888
   0.24120333  0.16848629  0.32934297
   0.50127293  0.86470969  0.45484168
   0.55047957  0.80003257  0.53434742
   0.54734613  0.62357506  0.63151534
   0.47834364  0.09396586  0.59610351
   0.26222291  0.66703092  0.56873703
   0.44342035  0.81832556  0.58205386
   0.76690901  0.58978528  0.65004672
   0.84571441  0.80521295  0.62272906
   0.64216489  0.71356729  0.62088522
   0.00790692  0.00563273  0.60300902
   0.28462383  0.97418201  0.59369855
   0.50353504  0.94380115  0.62869719
   0.47756643  0.40753171  0.73436115
   0.08322528  0.57882837  0.40641308
   0.40940692  0.73669376  0.57539695
   0.84176382  0.41386118  0.46783897
   0.01708949  0.96289010  0.39361135
   0.01470021  0.25659834  0.39108141
   0.00940585  0.08713341  0.57237871
   0.61198489  0.63216177  0.60929955
   0.21401283  0.44846881  0.50969905
   0.91506213  0.72796900  0.49625454
   0.52057854  0.08286369  0.42598659
   0.41862505  0.14153321  0.58884123
   0.08345253  0.11158014  0.40698087
   0.70189793  0.01725432  0.48732303
   0.66505935  0.87044553  0.43747644
   0.65009874  0.47643512  0.43015089
   0.19846065  0.88489030  0.46399069
   0.21510523  0.33944855  0.60370556
   0.67484376  0.78749721  0.59432010
   0.21651490  0.61422385  0.53864238