ESCALE ; pCOHP file generated by LOBSTER. Energy is shifted such that the Fermi level lies at 0 eV.
        18          1        801  -2.22918e+01   1.77583e+01  -2.26677e+00 
Average
No.1:C1->Si275(4.383385316184639)
No.1:C1[2s]->Si275[3s](4.383385316184639)
No.1:C1[2s]->Si275[3p_y](4.383385316184639)
No.1:C1[2s]->Si275[3p_z](4.383385316184639)
No.1:C1[2s]->Si275[3p_x](4.383385316184639)
No.1:C1[2p_y]->Si275[3s](4.383385316184639)
No.1:C1[2p_y]->Si275[3p_y](4.383385316184639)
No.1:C1[2p_y]->Si275[3p_z](4.383385316184639)
No.1:C1[2p_y]->Si275[3p_x](4.383385316184639)
No.1:C1[2p_z]->Si275[3s](4.383385316184639)
No.1:C1[2p_z]->Si275[3p_y](4.383385316184639)
No.1:C1[2p_z]->Si275[3p_z](4.383385316184639)
No.1:C1[2p_z]->Si275[3p_x](4.383385316184639)
No.1:C1[2p_x]->Si275[3s](4.383385316184639)
No.1:C1[2p_x]->Si275[3p_y](4.383385316184639)
No.1:C1[2p_x]->Si275[3p_z](4.383385316184639)
No.1:C1[2p_x]->Si275[3p_x](4.383385316184639)
-20.02503   0.00000  -0.00475   0.00000  -0.00475   0.00000   0.00005   0.00000  -0.00008   0.00000   0.00010   0.00000   0.00003   0.00000  -0.00002   0.00000  -0.00004   0.00000   0.00002   0.00000   0.00001   0.00000  -0.00253   0.00000  -0.00009   0.00000  -0.00164   0.00000   0.00003   0.00000  -0.00025   0.00000   0.00002   0.00000  -0.00040   0.00000   0.00006
-19.97497  -0.02301  -0.00590  -0.02301  -0.00590   0.00009   0.00005  -0.00068  -0.00011   0.00058   0.00012  -0.00143  -0.00004  -0.00004  -0.00002   0.00001  -0.00004  -0.00009   0.00001   0.00001   0.00001  -0.00290  -0.00267  -0.00094  -0.00014  -0.01131  -0.00220  -0.00249  -0.00010  -0.00034  -0.00027   0.00011   0.00002  -0.00239  -0.00052  -0.00120  -0.00000
-19.92491  -0.02586  -0.00719  -0.02586  -0.00719   0.00010   0.00005  -0.00072  -0.00015   0.00066   0.00016  -0.00161  -0.00012  -0.00003  -0.00002   0.00000  -0.00004  -0.00009   0.00001   0.00001   0.00001  -0.00322  -0.00283  -0.00108  -0.00020  -0.01262  -0.00283  -0.00285  -0.00024  -0.00042  -0.00029   0.00011   0.00003  -0.00277  -0.00066  -0.00133  -0.00007
-19.87484  -0.02571  -0.00848  -0.02571  -0.00848   0.00010   0.00006  -0.00069  -0.00018   0.00066   0.00019  -0.00160  -0.00020  -0.00003  -0.00002  -0.00000  -0.00004  -0.00008   0.00000   0.00001   0.00001  -0.00319  -0.00299  -0.00109  -0.00025  -0.01250  -0.00346  -0.00287  -0.00039  -0.00043  -0.00031   0.00010   0.00003  -0.00280  -0.00080  -0.00131  -0.00014
-19.82478  -0.02260  -0.00961  -0.02260  -0.00961   0.00009   0.00006  -0.00060  -0.00021   0.00058   0.00022  -0.00140  -0.00027  -0.00002  -0.00002  -0.00001  -0.00004  -0.00007  -0.00000   0.00001   0.00001  -0.00279  -0.00313  -0.00096  -0.00030  -0.01095  -0.00401  -0.00255  -0.00051  -0.00039  -0.00033   0.00009   0.00004  -0.00250  -0.00092  -0.00114  -0.00019
-19.77472  -0.01756  -0.01049  -0.01756  -0.01049   0.00007   0.00007  -0.00046  -0.00024   0.00045   0.00024  -0.00109  -0.00032  -0.00001  -0.00002  -0.00001  -0.00004  -0.00005  -0.00000   0.00001   0.00001  -0.00217  -0.00324  -0.00075  -0.00034  -0.00849  -0.00443  -0.00200  -0.00061  -0.00030  -0.00034   0.00007   0.00004  -0.00195  -0.00102  -0.00088  -0.00024
-19.72466  -0.01206  -0.01109  -0.01206  -0.01109   0.00005   0.00007  -0.00031  -0.00025   0.00031   0.00026  -0.00075  -0.00036  -0.00001  -0.00002  -0.00000  -0.00004  -0.00003  -0.00000   0.00001   0.00001  -0.00149  -0.00332  -0.00052  -0.00036  -0.00582  -0.00472  -0.00138  -0.00068  -0.00021  -0.00035   0.00004   0.00004  -0.00135  -0.00109  -0.00060  -0.00027
-19.67459  -0.00731  -0.01146  -0.00731  -0.01146   0.00003   0.00007  -0.00019  -0.00026   0.00019   0.00027  -0.00045  -0.00038  -0.00001  -0.00002  -0.00000  -0.00004  -0.00002  -0.00001   0.00001   0.00001  -0.00090  -0.00336  -0.00031  -0.00038  -0.00353  -0.00490  -0.00084  -0.00072  -0.00013  -0.00036   0.00003   0.00004  -0.00082  -0.00113  -0.00036  -0.00028
-19.62453  -0.00391  -0.01166  -0.00391  -0.01166   0.00002   0.00007  -0.00010  -0.00027   0.00010   0.00027  -0.00024  -0.00040  -0.00000  -0.00002  -0.00000  -0.00004  -0.00001  -0.00001   0.00000   0.00001  -0.00048  -0.00339  -0.00017  -0.00039  -0.00189  -0.00500  -0.00045  -0.00075  -0.00007  -0.00036   0.00001   0.00005  -0.00044  -0.00115  -0.00019  -0.00029
-19.57447  -0.00184  -0.01175  -0.00184  -0.01175   0.00001   0.00007  -0.00005  -0.00027   0.00005   0.00027  -0.00011  -0.00040  -0.00000  -0.00002  -0.00000  -0.00004  -0.00000  -0.00001   0.00000   0.00001  -0.00023  -0.00340  -0.00008  -0.00039  -0.00090  -0.00504  -0.00022  -0.00076  -0.00003  -0.00036   0.00001   0.00005  -0.00020  -0.00116  -0.00008  -0.00030
-19.52441  -0.00073  -0.01179  -0.00073  -0.01179   0.00000   0.00007  -0.00001  -0.00027   0.00002   0.00027  -0.00004  -0.00040   0.00000  -0.00002   0.00000  -0.00004   0.00000  -0.00001  -0.00000   0.00001  -0.00010  -0.00340  -0.00004  -0.00039  -0.00039  -0.00506  -0.00009  -0.00076  -0.00001  -0.00036   0.00000   0.00005  -0.00006  -0.00117  -0.00002  -0.00030
-19.47434  -0.00019  -0.01179  -0.00019  -0.01179  -0.00000   0.00007   0.00001  -0.00027   0.00000   0.00027   0.00000  -0.00040   0.00000  -0.00002   0.00000  -0.00004   0.00001  -0.00001  -0.00000   0.00001  -0.00004  -0.00341  -0.00002  -0.00039  -0.00016  -0.00507  -0.00004  -0.00076   0.00001  -0.00036  -0.00000   0.00005   0.00003  -0.00116   0.00002  -0.00030
-19.42428   0.00009  -0.01179   0.00009  -0.01179  -0.00000   0.00007   0.00002  -0.00027  -0.00001   0.00027   0.00003  -0.00040   0.00001  -0.00002   0.00001  -0.00004   0.00002  -0.00000  -0.00001   0.00001  -0.00003  -0.00341  -0.00001  -0.00039  -0.00009  -0.00507  -0.00003  -0.00077   0.00002  -0.00036  -0.00001   0.00004   0.00010  -0.00116   0.00007  -0.00030
-19.37422   0.00029  -0.01178   0.00029  -0.01178  -0.00000   0.00007   0.00004  -0.00027  -0.00002   0.00027   0.00007  -0.00040   0.00001  -0.00002   0.00001  -0.00004   0.00003  -0.00000  -0.00001   0.00001  -0.00003  -0.00341  -0.00002  -0.00039  -0.00009  -0.00508  -0.00003  -0.00077   0.00004  -0.00036  -0.00001   0.00004   0.00019  -0.00115   0.00012  -0.00029
-19.32416   0.00046  -0.01175   0.00046  -0.01175  -0.00001   0.00007   0.00006  -0.00026  -0.00003   0.00027   0.00010  -0.00039   0.00002  -0.00002   0.00001  -0.00004   0.00004  -0.00000  -0.00002   0.00001  -0.00004  -0.00341  -0.00002  -0.00040  -0.00012  -0.00508  -0.00004  -0.00077   0.00006  -0.00036  -0.00002   0.00004   0.00028  -0.00114   0.00017  -0.00028
-19.27409   0.00060  -0.01172   0.00060  -0.01172  -0.00001   0.00007   0.00008  -0.00026  -0.00004   0.00027   0.00013  -0.00039   0.00002  -0.00002   0.00002  -0.00004   0.00005   0.00000  -0.00003   0.00001  -0.00005  -0.00341  -0.00003  -0.00040  -0.00015  -0.00509  -0.00005  -0.00077   0.00008  -0.00035  -0.00002   0.00004   0.00037  -0.00112   0.00023  -0.00027
-19.22403   0.00070  -0.01169   0.00070  -0.01169  -0.00001   0.00007   0.00009  -0.00026  -0.00004   0.00027   0.00015  -0.00038   0.00003  -0.00002   0.00002  -0.00003   0.00006   0.00000  -0.00003   0.00001  -0.00006  -0.00342  -0.00003  -0.00040  -0.00017  -0.00510  -0.00006  -0.00078   0.00009  -0.00035  -0.00003   0.00004   0.00043  -0.00109   0.00026  -0.00026
-19.17397   0.00071  -0.01165   0.00071  -0.01165  -0.00001   0.00007   0.00009  -0.00025  -0.00005   0.00027   0.00015  -0.00037   0.00003  -0.00002   0.00002  -0.00003   0.00006   0.00001  -0.00003   0.00000  -0.00006  -0.00342  -0.00003  -0.00040  -0.00017  -0.00511  -0.00006  -0.00078   0.00009  -0.00035  -0.00003   0.00004   0.00044  -0.00107   0.00027  -0.00024
-19.12390   0.00064  -0.01162   0.00064  -0.01162  -0.00001   0.00007   0.00009  -0.00025  -0.00004   0.00026   0.00014  -0.00036   0.00002  -0.00002   0.00002  -0.00003   0.00005   0.00001  -0.00003   0.00000  -0.00005  -0.00342  -0.00003  -0.00040  -0.00016  -0.00512  -0.00006  -0.00078   0.00008  -0.00034  -0.00003   0.00004   0.00040  -0.00105   0.00024  -0.00023
-19.07384   0.00051  -0.01159   0.00051  -0.01159  -0.00001   0.00007   0.00007  -0.00024  -0.00003   0.00026   0.00011  -0.00036   0.00002  -0.00002   0.00002  -0.00003   0.00004   0.00001  -0.00002   0.00000  -0.00004  -0.00342  -0.00002  -0.00040  -0.00012  -0.00512  -0.00004  -0.00078   0.00006  -0.00034  -0.00002   0.00004   0.00032  -0.00104   0.00019  -0.00022
-19.02378   0.00036  -0.01158   0.00036  -0.01158  -0.00000   0.00007   0.00005  -0.00024  -0.00002   0.00026   0.00008  -0.00035   0.00001  -0.00002   0.00001  -0.00003   0.00003   0.00001  -0.00002   0.00000  -0.00003  -0.00343  -0.00002  -0.00040  -0.00009  -0.00513  -0.00003  -0.00079   0.00005  -0.00034  -0.00001   0.00004   0.00022  -0.00103   0.00014  -0.00021
-18.97372   0.00022  -0.01157   0.00022  -0.01157  -0.00000   0.00007   0.00003  -0.00024  -0.00001   0.00026   0.00005  -0.00035   0.00001  -0.00002   0.00001  -0.00003   0.00002   0.00001  -0.00001   0.00000  -0.00002  -0.00343  -0.00001  -0.00040  -0.00005  -0.00513  -0.00002  -0.00079   0.00003  -0.00033  -0.00001   0.00004   0.00014  -0.00102   0.00008  -0.00021
-18.92365   0.00012  -0.01156   0.00012  -0.01156  -0.00000   0.00007   0.00002  -0.00024  -0.00001   0.00026   0.00003  -0.00035   0.00000  -0.00002   0.00000  -0.00003   0.00001   0.00002  -0.00001  -0.00000  -0.00001  -0.00343  -0.00001  -0.00040  -0.00003  -0.00513  -0.00001  -0.00079   0.00002  -0.00033  -0.00001   0.00004   0.00008  -0.00102   0.00005  -0.00021
-18.87359   0.00006  -0.01156   0.00006  -0.01156  -0.00000   0.00007   0.00001  -0.00024  -0.00000   0.00026   0.00001  -0.00035   0.00000  -0.00002   0.00000  -0.00003   0.00001   0.00002  -0.00000  -0.00000  -0.00001  -0.00343  -0.00000  -0.00040  -0.00001  -0.00513  -0.00001  -0.00079   0.00001  -0.00033  -0.00000   0.00004   0.00004  -0.00101   0.00002  -0.00021
-18.82353   0.00003  -0.01156   0.00003  -0.01156  -0.00000   0.00007   0.00000  -0.00024  -0.00000   0.00026   0.00001  -0.00035   0.00000  -0.00002   0.00000  -0.00003   0.00000   0.00002  -0.00000  -0.00000  -0.00000  -0.00343  -0.00000  -0.00040  -0.00001  -0.00513  -0.00000  -0.00079   0.00000  -0.00033  -0.00000   0.00004   0.00002  -0.00101   0.00001  -0.00021
-18.77347   0.00001  -0.01155   0.00001  -0.01155  -0.00000   0.00007   0.00000  -0.00024  -0.00000   0.00026   0.00000  -0.00035   0.00000  -0.00002   0.00000  -0.00003   0.00000   0.00002  -0.00000  -0.00000  -0.00000  -0.00343  -0.00000  -0.00040  -0.00000  -0.00513  -0.00000  -0.00079   0.00000  -0.00033  -0.00000   0.00004   0.00001  -0.00101   0.00000  -0.00021
-18.72340   0.00000  -0.01155   0.00000  -0.01155  -0.00000   0.00007   0.00000  -0.00024  -0.00000   0.00026   0.00000  -0.00035   0.00000  -0.00002   0.00000  -0.00003   0.00000   0.00002  -0.00000  -0.00000  -0.00000  -0.00343  -0.00000  -0.00040  -0.00000  -0.00513  -0.00000  -0.00079   0.00000  -0.00033  -0.00000   0.00004   0.00000  -0.00101   0.00000  -0.00021
-18.67334   0.00000  -0.01155   0.00000  -0.01155  -0.00000   0.00007   0.00000  -0.00024  -0.00000   0.00026   0.00000  -0.00035   0.00000  -0.00002   0.00000  -0.00003   0.00000   0.00002  -0.00000  -0.00000  -0.00000  -0.00343  -0.00000  -0.00040  -0.00000  -0.00513  -0.00000  -0.00079   0.00000  -0.00033  -0.00000   0.00004   0.00000  -0.00101   0.00000  -0.00021
-18.62328   0.00000  -0.01155   0.00000  -0.01155  -0.00000   0.00007   0.00000  -0.00024  -0.00000   0.00026   0.00000  -0.00035   0.00000  -0.00002   0.00000  -0.00003   0.00000   0.00002  -0.00000  -0.00000  -0.00000  -0.00343  -0.00000  -0.00040  -0.00000  -0.00513  -0.00000  -0.00079   0.00000  -0.00033  -0.00000   0.00004   0.00000  -0.00101   0.00000  -0.00021
-18.57322   0.00000  -0.01155   0.00000  -0.01155  -0.00000   0.00007   0.00000  -0.00024  -0.00000   0.00026   0.00000  -0.00035   0.00000  -0.00002   0.00000  -0.00003   0.00000   0.00002  -0.00000  -0.00000  -0.00000  -0.00343  -0.00000  -0.00040  -0.00000  -0.00513  -0.00000  -0.00079   0.00000  -0.00033  -0.00000   0.00004   0.00000  -0.00101   0.00000  -0.00021
-18.52315   0.00000  -0.01155   0.00000  -0.01155  -0.00000   0.00007   0.00000  -0.00024  -0.00000   0.00026   0.00000  -0.00035   0.00000  -0.00002   0.00000  -0.00003   0.00000   0.00002  -0.00000  -0.00000  -0.00000  -0.00343  -0.00000  -0.00040  -0.00000  -0.00513  -0.00000  -0.00079   0.00000  -0.00033  -0.00000   0.00004   0.00000  -0.00101   0.00000  -0.00021
-18.47309   0.00000  -0.01155   0.00000  -0.01155  -0.00000   0.00007   0.00000  -0.00024  -0.00000   0.00026   0.00000  -0.00035   0.00000  -0.00002   0.00000  -0.00003   0.00000   0.00002  -0.00000  -0.00000  -0.00000  -0.00343  -0.00000  -0.00040  -0.00000  -0.00513  -0.00000  -0.00079   0.00000  -0.00033  -0.00000   0.00004   0.00000  -0.00101   0.00000  -0.00021
-18.42303   0.00000  -0.01155   0.00000  -0.01155  -0.00000   0.00007   0.00000  -0.00024  -0.00000   0.00026   0.00000  -0.00035   0.00000  -0.00002   0.00000  -0.00003   0.00000   0.00002  -0.00000  -0.00000  -0.00000  -0.00343  -0.00000  -0.00040  -0.00000  -0.00513  -0.00000  -0.00079   0.00000  -0.00033  -0.00000   0.00004   0.00000  -0.00101   0.00000  -0.00021
-18.37297   0.00000  -0.01155   0.00000  -0.01155  -0.00000   0.00007   0.00000  -0.00024  -0.00000   0.00026   0.00000  -0.00035   0.00000  -0.00002   0.00000  -0.00003   0.00000   0.00002  -0.00000  -0.00000  -0.00000  -0.00343  -0.00000  -0.00040  -0.00000  -0.00513  -0.00000  -0.00079   0.00000  -0.00033  -0.00000   0.00004   0.00000  -0.00101   0.00000  -0.00021
-18.32290   0.00000  -0.01155   0.00000  -0.01155  -0.00000   0.00007   0.00000  -0.00024  -0.00000   0.00026   0.00000  -0.00035   0.00000  -0.00002   0.00000  -0.00003   0.00000   0.00002  -0.00000  -0.00000  -0.00000  -0.00343  -0.00000  -0.00040  -0.00000  -0.00513  -0.00000  -0.00079   0.00000  -0.00033  -0.00000   0.00004   0.00000  -0.00101   0.00000  -0.00021
-18.27284   0.00000  -0.01155   0.00000  -0.01155  -0.00000   0.00007   0.00000  -0.00024  -0.00000   0.00026   0.00000  -0.00035   0.00000  -0.00002   0.00000  -0.00003   0.00000   0.00002  -0.00000  -0.00000  -0.00000  -0.00343  -0.00000  -0.00040  -0.00000  -0.00513  -0.00000  -0.00079   0.00000  -0.00033  -0.00000   0.00004   0.00000  -0.00101   0.00000  -0.00021
-18.22278   0.00000  -0.01155   0.00000  -0.01155  -0.00000   0.00007   0.00000  -0.00024  -0.00000   0.00026   0.00000  -0.00035   0.00000  -0.00002   0.00000  -0.00003   0.00000   0.00002  -0.00000  -0.00000  -0.00000  -0.00343  -0.00000  -0.00040  -0.00000  -0.00513  -0.00000  -0.00079   0.00000  -0.00033  -0.00000   0.00004   0.00000  -0.00101   0.00000  -0.00021
-18.17272   0.00000  -0.01155   0.00000  -0.01155  -0.00000   0.00007   0.00000  -0.00024  -0.00000   0.00026   0.00000  -0.00035   0.00000  -0.00002   0.00000  -0.00003   0.00000   0.00002  -0.00000  -0.00000  -0.00000  -0.00343  -0.00000  -0.00040  -0.00000  -0.00513  -0.00000  -0.00079   0.00000  -0.00033  -0.00000   0.00004   0.00000  -0.00101   0.00000  -0.00021
-18.12265   0.00000  -0.01155   0.00000  -0.01155  -0.00000   0.00007   0.00000  -0.00024  -0.00000   0.00026   0.00000  -0.00035   0.00000  -0.00002   0.00000  -0.00003   0.00000   0.00002  -0.00000  -0.00000  -0.00000  -0.00343  -0.00000  -0.00040  -0.00000  -0.00513  -0.00000  -0.00079   0.00000  -0.00033  -0.00000   0.00004   0.00000  -0.00101   0.00000  -0.00021
-18.07259   0.00000  -0.01155   0.00000  -0.01155  -0.00000   0.00007   0.00000  -0.00024  -0.00000   0.00026   0.00000  -0.00035   0.00000  -0.00002   0.00000  -0.00003   0.00000   0.00002  -0.00000  -0.00000   0.00000  -0.00343  -0.00000  -0.00040   0.00000  -0.00513  -0.00000  -0.00079   0.00000  -0.00033  -0.00000   0.00004   0.00000  -0.00101   0.00000  -0.00021
-18.02253   0.00000  -0.01155   0.00000  -0.01155   0.00000   0.00007   0.00000  -0.00024   0.00000   0.00026   0.00000  -0.00035   0.00000  -0.00002   0.00000  -0.00003   0.00000   0.00002  -0.00000  -0.00000   0.00000  -0.00343   0.00000  -0.00040   0.00000  -0.00513   0.00000  -0.00079   0.00000  -0.00033  -0.00000   0.00004   0.00000  -0.00101   0.00000  -0.00021
-17.97247   0.00000  -0.01155   0.00000  -0.01155   0.00000   0.00007   0.00000  -0.00024   0.00000   0.00026   0.00000  -0.00035   0.00000  -0.00002   0.00000  -0.00003   0.00000   0.00002   0.00000  -0.00000   0.00000  -0.00343   0.00000  -0.00040   0.00000  -0.00513   0.00000  -0.00079   0.00000  -0.00033   0.00000   0.00004   0.00000  -0.00101   0.00000  -0.00021
-17.92240   0.00000  -0.01155   0.00000  -0.01155   0.00000   0.00007   0.00000  -0.00024   0.00000   0.00026   0.00000  -0.00035   0.00000  -0.00002   0.00000  -0.00003   0.00000   0.00002   0.00000  -0.00000   0.00000  -0.00343   0.00000  -0.00040   0.00000  -0.00513   0.00000  -0.00079   0.00000  -0.00033   0.00000   0.00004   0.00000  -0.00101   0.00000  -0.00021
-17.87234   0.00000  -0.01155   0.00000  -0.01155   0.00000   0.00007   0.00000  -0.00024   0.00000   0.00026   0.00000  -0.00035   0.00000  -0.00002   0.00000  -0.00003   0.00000   0.00002   0.00000  -0.00000   0.00000  -0.00343   0.00000  -0.00040   0.00000  -0.00513   0.00000  -0.00079   0.00000  -0.00033   0.00000   0.00004   0.00000  -0.00101   0.00000  -0.00021
-17.82228   0.00000  -0.01155   0.00000  -0.01155   0.00000   0.00007   0.00000  -0.00024   0.00000   0.00026   0.00000  -0.00035   0.00000  -0.00002   0.00000  -0.00003   0.00000   0.00002   0.00000  -0.00000   0.00000  -0.00343   0.00000  -0.00040   0.00000  -0.00513   0.00000  -0.00079   0.00000  -0.00033   0.00000   0.00004   0.00000  -0.00101   0.00000  -0.00021
-17.77222   0.00000  -0.01155   0.00000  -0.01155   0.00000   0.00007   0.00000  -0.00024   0.00000   0.00026   0.00000  -0.00035   0.00000  -0.00002   0.00000  -0.00003   0.00000   0.00002   0.00000  -0.00000   0.00000  -0.00343   0.00000  -0.00040   0.00000  -0.00513   0.00000  -0.00079   0.00000  -0.00033   0.00000   0.00004   0.00000  -0.00101   0.00000  -0.00021
-17.72215   0.00000  -0.01155   0.00000  -0.01155   0.00000   0.00007   0.00000  -0.00024   0.00000   0.00026   0.00000  -0.00035   0.00000  -0.00002   0.00000  -0.00003   0.00000   0.00002   0.00000  -0.00000   0.00000  -0.00343   0.00000  -0.00040   0.00000  -0.00513   0.00000  -0.00079   0.00000  -0.00033   0.00000   0.00004   0.00000  -0.00101   0.00000  -0.00021
-17.67209   0.00000  -0.01155   0.00000  -0.01155   0.00000   0.00007   0.00000  -0.00024   0.00000   0.00026   0.00000  -0.00035   0.00000  -0.00002   0.00000  -0.00003   0.00000   0.00002   0.00000  -0.00000   0.00000  -0.00343   0.00000  -0.00040   0.00000  -0.00513   0.00000  -0.00079   0.00000  -0.00033   0.00000   0.00004   0.00000  -0.00101   0.00000  -0.00021
-17.62203   0.00000  -0.01155   0.00000  -0.01155   0.00000   0.00007   0.00000  -0.00024   0.00000   0.00026   0.00000  -0.00035   0.00000  -0.00002   0.00000  -0.00003   0.00000   0.00002   0.00000  -0.00000   0.00000  -0.00343   0.00000  -0.00040   0.00000  -0.00513   0.00000  -0.00079   0.00000  -0.00033   0.00000   0.00004   0.00000  -0.00101   0.00000  -0.00021
-17.57196   0.00000  -0.01155   0.00000  -0.01155   0.00000   0.00007   0.00000  -0.00024   0.00000   0.00026   0.00000  -0.00035   0.00000  -0.00002   0.00000  -0.00003   0.00000   0.00002   0.00000  -0.00000   0.00000  -0.00343   0.00000  -0.00040   0.00000  -0.00513   0.00000  -0.00079   0.00000  -0.00033   0.00000   0.00004   0.00000  -0.00101   0.00000  -0.00021
-17.52190   0.00000  -0.01155   0.00000  -0.01155   0.00000   0.00007   0.00000  -0.00024   0.00000   0.00026   0.00000  -0.00035   0.00000  -0.00002   0.00000  -0.00003   0.00000   0.00002   0.00000  -0.00000   0.00000  -0.00343   0.00000  -0.00040   0.00000  -0.00513   0.00000  -0.00079   0.00000  -0.00033   0.00000   0.00004   0.00000  -0.00101   0.00000  -0.00021
-17.47184   0.00000  -0.01155   0.00000  -0.01155   0.00000   0.00007   0.00000  -0.00024   0.00000   0.00026   0.00000  -0.00035   0.00000  -0.00002   0.00000  -0.00003   0.00000   0.00002   0.00000  -0.00000   0.00000  -0.00343   0.00000  -0.00040   0.00000  -0.00513   0.00000  -0.00079   0.00000  -0.00033   0.00000   0.00004   0.00000  -0.00101   0.00000  -0.00021
-17.42178   0.00000  -0.01155   0.00000  -0.01155   0.00000   0.00007   0.00000  -0.00024   0.00000   0.00026   0.00000  -0.00035   0.00000  -0.00002   0.00000  -0.00003   0.00000   0.00002   0.00000  -0.00000   0.00000  -0.00343   0.00000  -0.00040   0.00000  -0.00513   0.00000  -0.00079   0.00000  -0.00033   0.00000   0.00004   0.00000  -0.00101   0.00000  -0.00021
-17.37171   0.00000  -0.01155   0.00000  -0.01155   0.00000   0.00007   0.00000  -0.00024   0.00000   0.00026   0.00000  -0.00035   0.00000  -0.00002   0.00000  -0.00003   0.00000   0.00002   0.00000  -0.00000   0.00000  -0.00343   0.00000  -0.00040   0.00000  -0.00513   0.00000  -0.00079   0.00000  -0.00033   0.00000   0.00004   0.00000  -0.00101   0.00000  -0.00021
-17.32165   0.00000  -0.01155   0.00000  -0.01155   0.00000   0.00007   0.00000  -0.00024   0.00000   0.00026   0.00000  -0.00035   0.00000  -0.00002   0.00000  -0.00003   0.00000   0.00002   0.00000  -0.00000   0.00000  -0.00343   0.00000  -0.00040   0.00000  -0.00513   0.00000  -0.00079   0.00000  -0.00033   0.00000   0.00004   0.00000  -0.00101   0.00000  -0.00021
-17.27159   0.00000  -0.01155   0.00000  -0.01155   0.00000   0.00007   0.00000  -0.00024   0.00000   0.00026   0.00000  -0.00035   0.00000  -0.00002   0.00000  -0.00003   0.00000   0.00002   0.00000  -0.00000   0.00000  -0.00343   0.00000  -0.00040   0.00000  -0.00513   0.00000  -0.00079   0.00000  -0.00033   0.00000   0.00004   0.00000  -0.00101   0.00000  -0.00021
-17.22153   0.00000  -0.01155   0.00000  -0.01155   0.00000   0.00007   0.00000  -0.00024   0.00000   0.00026   0.00000  -0.00035   0.00000  -0.00002   0.00000  -0.00003   0.00000   0.00002   0.00000  -0.00000   0.00000  -0.00343   0.00000  -0.00040   0.00000  -0.00513   0.00000  -0.00079   0.00000  -0.00033   0.00000   0.00004   0.00000  -0.00101   0.00000  -0.00021
-17.17146   0.00000  -0.01155   0.00000  -0.01155   0.00000   0.00007   0.00000  -0.00024   0.00000   0.00026   0.00000  -0.00035   0.00000  -0.00002   0.00000  -0.00003   0.00000   0.00002   0.00000  -0.00000   0.00000  -0.00343   0.00000  -0.00040   0.00000  -0.00513   0.00000  -0.00079   0.00000  -0.00033   0.00000   0.00004   0.00000  -0.00101   0.00000  -0.00021
-17.12140   0.00000  -0.01155   0.00000  -0.01155   0.00000   0.00007   0.00000  -0.00024   0.00000   0.00026   0.00000  -0.00035   0.00000  -0.00002   0.00000  -0.00003   0.00000   0.00002   0.00000  -0.00000   0.00000  -0.00343   0.00000  -0.00040   0.00000  -0.00513   0.00000  -0.00079   0.00000  -0.00033   0.00000   0.00004   0.00000  -0.00101   0.00000  -0.00021
-17.07134   0.00000  -0.01155   0.00000  -0.01155   0.00000   0.00007   0.00000  -0.00024   0.00000   0.00026   0.00000  -0.00035   0.00000  -0.00002   0.00000  -0.00003   0.00000   0.00002   0.00000  -0.00000   0.00000  -0.00343   0.00000  -0.00040   0.00000  -0.00513   0.00000  -0.00079   0.00000  -0.00033   0.00000   0.00004   0.00000  -0.00101   0.00000  -0.00021
-17.02128   0.00000  -0.01155   0.00000  -0.01155   0.00000   0.00007   0.00000  -0.00024   0.00000   0.00026   0.00000  -0.00035   0.00000  -0.00002   0.00000  -0.00003   0.00000   0.00002   0.00000  -0.00000   0.00000  -0.00343   0.00000  -0.00040   0.00000  -0.00513   0.00000  -0.00079   0.00000  -0.00033   0.00000   0.00004   0.00000  -0.00101   0.00000  -0.00021
-16.97121   0.00000  -0.01155   0.00000  -0.01155   0.00000   0.00007   0.00000  -0.00024   0.00000   0.00026   0.00000  -0.00035   0.00000  -0.00002   0.00000  -0.00003   0.00000   0.00002   0.00000  -0.00000   0.00000  -0.00343   0.00000  -0.00040   0.00000  -0.00513   0.00000  -0.00079   0.00000  -0.00033   0.00000   0.00004   0.00000  -0.00101   0.00000  -0.00021
-16.92115   0.00000  -0.01155   0.00000  -0.01155   0.00000   0.00007   0.00000  -0.00024   0.00000   0.00026   0.00000  -0.00035   0.00000  -0.00002   0.00000  -0.00003   0.00000   0.00002   0.00000  -0.00000   0.00000  -0.00343   0.00000  -0.00040   0.00000  -0.00513   0.00000  -0.00079   0.00000  -0.00033   0.00000   0.00004   0.00000  -0.00101   0.00000  -0.00021
-16.87109   0.00000  -0.01155   0.00000  -0.01155   0.00000   0.00007   0.00000  -0.00024   0.00000   0.00026   0.00000  -0.00035   0.00000  -0.00002   0.00000  -0.00003   0.00000   0.00002   0.00000  -0.00000   0.00000  -0.00343   0.00000  -0.00040   0.00000  -0.00513   0.00000  -0.00079   0.00000  -0.00033   0.00000   0.00004   0.00000  -0.00101   0.00000  -0.00021
-16.82103   0.00000  -0.01155   0.00000  -0.01155   0.00000   0.00007   0.00000  -0.00024   0.00000   0.00026   0.00000  -0.00035   0.00000  -0.00002   0.00000  -0.00003   0.00000   0.00002   0.00000  -0.00000   0.00000  -0.00343   0.00000  -0.00040   0.00000  -0.00513   0.00000  -0.00079   0.00000  -0.00033   0.00000   0.00004   0.00000  -0.00101   0.00000  -0.00021
-16.77096   0.00000  -0.01155   0.00000  -0.01155   0.00000   0.00007   0.00000  -0.00024   0.00000   0.00026   0.00000  -0.00035   0.00000  -0.00002   0.00000  -0.00003   0.00000   0.00002   0.00000  -0.00000   0.00000  -0.00343   0.00000  -0.00040   0.00000  -0.00513   0.00000  -0.00079   0.00000  -0.00033   0.00000   0.00004   0.00000  -0.00101   0.00000  -0.00021
-16.72090   0.00000  -0.01155   0.00000  -0.01155   0.00000   0.00007   0.00000  -0.00024   0.00000   0.00026   0.00000  -0.00035   0.00000  -0.00002   0.00000  -0.00003   0.00000   0.00002   0.00000  -0.00000   0.00000  -0.00343   0.00000  -0.00040   0.00000  -0.00513   0.00000  -0.00079   0.00000  -0.00033   0.00000   0.00004   0.00000  -0.00101   0.00000  -0.00021
-16.67084   0.00000  -0.01155  -0.00000  -0.01155  -0.00000   0.00007   0.00000  -0.00024   0.00000   0.00026   0.00000  -0.00035   0.00000  -0.00002   0.00000  -0.00003   0.00000   0.00002  -0.00000  -0.00000   0.00000  -0.00343   0.00000  -0.00040   0.00000  -0.00513   0.00000  -0.00079   0.00000  -0.00033   0.00000   0.00004   0.00000  -0.00101   0.00000  -0.00021
-16.62078  -0.00000  -0.01155  -0.00000  -0.01155  -0.00000   0.00007   0.00000  -0.00024  -0.00000   0.00026   0.00000  -0.00035   0.00000  -0.00002   0.00000  -0.00003   0.00000   0.00002  -0.00000  -0.00000  -0.00000  -0.00343   0.00000  -0.00040  -0.00000  -0.00513  -0.00000  -0.00079   0.00000  -0.00033   0.00000   0.00004   0.00000  -0.00101   0.00000  -0.00021
-16.57071  -0.00000  -0.01155  -0.00000  -0.01155  -0.00000   0.00007   0.00000  -0.00024  -0.00000   0.00026   0.00000  -0.00035   0.00000  -0.00002   0.00000  -0.00003   0.00000   0.00002  -0.00000  -0.00000  -0.00000  -0.00343  -0.00000  -0.00040  -0.00000  -0.00513  -0.00000  -0.00079   0.00000  -0.00033  -0.00000   0.00004   0.00000  -0.00101   0.00000  -0.00021
-16.52065  -0.00000  -0.01155  -0.00000  -0.01155  -0.00000   0.00007   0.00000  -0.00024  -0.00000   0.00026   0.00000  -0.00035   0.00000  -0.00002   0.00000  -0.00003   0.00000   0.00002  -0.00000  -0.00000  -0.00000  -0.00343  -0.00000  -0.00040  -0.00000  -0.00513  -0.00000  -0.00079   0.00000  -0.00033  -0.00000   0.00004   0.00000  -0.00101   0.00000  -0.00021
-16.47059  -0.00000  -0.01155  -0.00000  -0.01155  -0.00000   0.00007   0.00000  -0.00024  -0.00000   0.00026   0.00000  -0.00035   0.00000  -0.00002   0.00000  -0.00003   0.00000   0.00002  -0.00000  -0.00000  -0.00000  -0.00343  -0.00000  -0.00040  -0.00000  -0.00513  -0.00000  -0.00079   0.00000  -0.00033  -0.00000   0.00004   0.00000  -0.00101   0.00000  -0.00021
-16.42053  -0.00000  -0.01155  -0.00000  -0.01155  -0.00000   0.00007   0.00000  -0.00024  -0.00000   0.00026   0.00000  -0.00035   0.00000  -0.00002   0.00000  -0.00003   0.00000   0.00002  -0.00000  -0.00000  -0.00000  -0.00343  -0.00000  -0.00040  -0.00000  -0.00513  -0.00000  -0.00079   0.00000  -0.00033  -0.00000   0.00004   0.00000  -0.00101   0.00000  -0.00021
-16.37046  -0.00000  -0.01155  -0.00000  -0.01155  -0.00000   0.00007   0.00000  -0.00024  -0.00000   0.00026   0.00000  -0.00035   0.00000  -0.00002   0.00000  -0.00003   0.00000   0.00002  -0.00000  -0.00000  -0.00000  -0.00343  -0.00000  -0.00040  -0.00000  -0.00513  -0.00000  -0.00079   0.00000  -0.00033  -0.00000   0.00004   0.00000  -0.00101   0.00000  -0.00021
-16.32040  -0.00000  -0.01155  -0.00000  -0.01155  -0.00000   0.00007   0.00000  -0.00024  -0.00000   0.00026   0.00000  -0.00035   0.00000  -0.00002   0.00000  -0.00003   0.00000   0.00002  -0.00000  -0.00000  -0.00000  -0.00343  -0.00000  -0.00040  -0.00000  -0.00513  -0.00000  -0.00079   0.00000  -0.00033  -0.00000   0.00004   0.00000  -0.00101   0.00000  -0.00021
-16.27034  -0.00000  -0.01155  -0.00000  -0.01155  -0.00000   0.00007   0.00000  -0.00024  -0.00000   0.00026   0.00000  -0.00035   0.00000  -0.00002   0.00000  -0.00003   0.00000   0.00002  -0.00000  -0.00000  -0.00000  -0.00343  -0.00000  -0.00040  -0.00000  -0.00513  -0.00000  -0.00079   0.00000  -0.00033  -0.00000   0.00004   0.00000  -0.00101   0.00000  -0.00021
-16.22028  -0.00000  -0.01155  -0.00000  -0.01155  -0.00000   0.00007   0.00000  -0.00024  -0.00000   0.00026   0.00000  -0.00035   0.00000  -0.00002   0.00000  -0.00003   0.00000   0.00002  -0.00000  -0.00000  -0.00000  -0.00343  -0.00000  -0.00040  -0.00000  -0.00513  -0.00000  -0.00079   0.00000  -0.00033  -0.00000   0.00004   0.00000  -0.00101   0.00000  -0.00021
-16.17021  -0.00000  -0.01155  -0.00000  -0.01155  -0.00000   0.00007   0.00000  -0.00024  -0.00000   0.00026   0.00000  -0.00035   0.00000  -0.00002   0.00000  -0.00003   0.00000   0.00002  -0.00000  -0.00000  -0.00000  -0.00343  -0.00000  -0.00040  -0.00000  -0.00513  -0.00000  -0.00079   0.00000  -0.00033  -0.00000   0.00004   0.00000  -0.00101   0.00000  -0.00021