  COHP#    atomMU    atomNU   distance   translation   ICOHP (at) eF 
                                                          for spin 1 
      1        C1     Si275    4.38339     0   0   0        -0.02620 
      1     C1_2s  Si275_3s    4.38339     0   0   0         0.00008 
      1     C1_2s Si275_3p_y    4.38339     0   0   0        -0.00053 
      1     C1_2s Si275_3p_z    4.38339     0   0   0         0.00042 
      1     C1_2s Si275_3p_x    4.38339     0   0   0         0.00042 
      1   C1_2p_y  Si275_3s    4.38339     0   0   0        -0.00049 
      1   C1_2p_y Si275_3p_y    4.38339     0   0   0        -0.00015 
      1   C1_2p_y Si275_3p_z    4.38339     0   0   0        -0.00040 
      1   C1_2p_y Si275_3p_x    4.38339     0   0   0        -0.00013 
      1   C1_2p_z  Si275_3s    4.38339     0   0   0        -0.00956 
      1   C1_2p_z Si275_3p_y    4.38339     0   0   0        -0.00111 
      1   C1_2p_z Si275_3p_z    4.38339     0   0   0        -0.01279 
      1   C1_2p_z Si275_3p_x    4.38339     0   0   0         0.00125 
      1   C1_2p_x  Si275_3s    4.38339     0   0   0        -0.00103 
      1   C1_2p_x Si275_3p_y    4.38339     0   0   0        -0.00003 
      1   C1_2p_x Si275_3p_z    4.38339     0   0   0        -0.00355 
      1   C1_2p_x Si275_3p_x    4.38339     0   0   0         0.00141 