ESCALE ; pCOOP file generated by LOBSTER. Energy is shifted such that the Fermi level lies at 0 eV.
        73          1        801  -2.27331e+01   1.73169e+01  -2.70809e+00 
Average
No.1:O204->W270(1.7206570726413413)
No.1:O204[2s]->W270[6s](1.7206570726413413)
No.1:O204[2s]->W270[5d_xy](1.7206570726413413)
No.1:O204[2s]->W270[5d_yz](1.7206570726413413)
No.1:O204[2s]->W270[5d_z^2](1.7206570726413413)
No.1:O204[2s]->W270[5d_xz](1.7206570726413413)
No.1:O204[2s]->W270[5d_x^2-y^2](1.7206570726413413)
No.1:O204[2p_y]->W270[6s](1.7206570726413413)
No.1:O204[2p_y]->W270[5d_xy](1.7206570726413413)
No.1:O204[2p_y]->W270[5d_yz](1.7206570726413413)
No.1:O204[2p_y]->W270[5d_z^2](1.7206570726413413)
No.1:O204[2p_y]->W270[5d_xz](1.7206570726413413)
No.1:O204[2p_y]->W270[5d_x^2-y^2](1.7206570726413413)
No.1:O204[2p_z]->W270[6s](1.7206570726413413)
No.1:O204[2p_z]->W270[5d_xy](1.7206570726413413)
No.1:O204[2p_z]->W270[5d_yz](1.7206570726413413)
No.1:O204[2p_z]->W270[5d_z^2](1.7206570726413413)
No.1:O204[2p_z]->W270[5d_xz](1.7206570726413413)
No.1:O204[2p_z]->W270[5d_x^2-y^2](1.7206570726413413)
No.1:O204[2p_x]->W270[6s](1.7206570726413413)
No.1:O204[2p_x]->W270[5d_xy](1.7206570726413413)
No.1:O204[2p_x]->W270[5d_yz](1.7206570726413413)
No.1:O204[2p_x]->W270[5d_z^2](1.7206570726413413)
No.1:O204[2p_x]->W270[5d_xz](1.7206570726413413)
No.1:O204[2p_x]->W270[5d_x^2-y^2](1.7206570726413413)
No.2:H48->C1(1.109193466386478)
No.2:H48[1s]->C1[2s](1.109193466386478)
No.2:H48[1s]->C1[2p_y](1.109193466386478)
No.2:H48[1s]->C1[2p_z](1.109193466386478)
No.2:H48[1s]->C1[2p_x](1.109193466386478)
No.3:C1->W270(1.9010507642908683)
No.3:C1[2s]->W270[6s](1.9010507642908683)
No.3:C1[2s]->W270[5d_xy](1.9010507642908683)
No.3:C1[2s]->W270[5d_yz](1.9010507642908683)
No.3:C1[2s]->W270[5d_z^2](1.9010507642908683)
No.3:C1[2s]->W270[5d_xz](1.9010507642908683)
No.3:C1[2s]->W270[5d_x^2-y^2](1.9010507642908683)
No.3:C1[2p_y]->W270[6s](1.9010507642908683)
No.3:C1[2p_y]->W270[5d_xy](1.9010507642908683)
No.3:C1[2p_y]->W270[5d_yz](1.9010507642908683)
No.3:C1[2p_y]->W270[5d_z^2](1.9010507642908683)
No.3:C1[2p_y]->W270[5d_xz](1.9010507642908683)
No.3:C1[2p_y]->W270[5d_x^2-y^2](1.9010507642908683)
No.3:C1[2p_z]->W270[6s](1.9010507642908683)
No.3:C1[2p_z]->W270[5d_xy](1.9010507642908683)
No.3:C1[2p_z]->W270[5d_yz](1.9010507642908683)
No.3:C1[2p_z]->W270[5d_z^2](1.9010507642908683)
No.3:C1[2p_z]->W270[5d_xz](1.9010507642908683)
No.3:C1[2p_z]->W270[5d_x^2-y^2](1.9010507642908683)
No.3:C1[2p_x]->W270[6s](1.9010507642908683)
No.3:C1[2p_x]->W270[5d_xy](1.9010507642908683)
No.3:C1[2p_x]->W270[5d_yz](1.9010507642908683)
No.3:C1[2p_x]->W270[5d_z^2](1.9010507642908683)
No.3:C1[2p_x]->W270[5d_xz](1.9010507642908683)
No.3:C1[2p_x]->W270[5d_x^2-y^2](1.9010507642908683)
No.4:C1->C2(1.5056097681573799)
No.4:C1[2s]->C2[2s](1.5056097681573799)
No.4:C1[2s]->C2[2p_y](1.5056097681573799)
No.4:C1[2s]->C2[2p_z](1.5056097681573799)
No.4:C1[2s]->C2[2p_x](1.5056097681573799)
No.4:C1[2p_y]->C2[2s](1.5056097681573799)
No.4:C1[2p_y]->C2[2p_y](1.5056097681573799)
No.4:C1[2p_y]->C2[2p_z](1.5056097681573799)
No.4:C1[2p_y]->C2[2p_x](1.5056097681573799)
No.4:C1[2p_z]->C2[2s](1.5056097681573799)
No.4:C1[2p_z]->C2[2p_y](1.5056097681573799)
No.4:C1[2p_z]->C2[2p_z](1.5056097681573799)
No.4:C1[2p_z]->C2[2p_x](1.5056097681573799)
No.4:C1[2p_x]->C2[2s](1.5056097681573799)
No.4:C1[2p_x]->C2[2p_y](1.5056097681573799)
No.4:C1[2p_x]->C2[2p_z](1.5056097681573799)
No.4:C1[2p_x]->C2[2p_x](1.5056097681573799)
-20.02503   0.00000  -0.00029   0.00000  -0.00024   0.00000  -0.00005   0.00000  -0.00042   0.00000   0.00004   0.00000   0.00000   0.00000   0.00009   0.00000   0.00012   0.00000  -0.00000   0.00000  -0.00003   0.00000   0.00000   0.00000  -0.00000   0.00000   0.00001   0.00000  -0.00004   0.00000  -0.00000   0.00000  -0.00005   0.00000   0.00000   0.00000   0.00001   0.00000   0.00000   0.00000   0.00001   0.00000  -0.00000   0.00000   0.00001   0.00000   0.00001   0.00000  -0.00000   0.00000  -0.00000   0.00000   0.00004   0.00000  -0.00056   0.00000  -0.00030   0.00000  -0.00014   0.00000  -0.00003   0.00000  -0.00008   0.00000  -0.00030   0.00000  -0.00006   0.00000  -0.00002   0.00000  -0.00000   0.00000   0.00000   0.00000  -0.00003   0.00000  -0.00009   0.00000   0.00000   0.00000  -0.00002   0.00000  -0.00001   0.00000   0.00000   0.00000  -0.00000   0.00000   0.00000   0.00000  -0.00000   0.00000  -0.00000   0.00000  -0.00000   0.00000  -0.00003   0.00000   0.00001   0.00000  -0.00001   0.00000  -0.00001   0.00000  -0.00000   0.00000   0.00000   0.00000   0.00001   0.00000  -0.00005   0.00000  -0.00000   0.00000  -0.00007   0.00000  -0.00000   0.00000  -0.00001   0.00000   0.00000   0.00000  -0.00000   0.00000  -0.00000   0.00000  -0.00001   0.00000  -0.00001   0.00000  -0.00000   0.00000  -0.00000   0.00000  -0.00000   0.00000   0.00000   0.00000  -0.00001   0.00000  -0.00001   0.00000  -0.00001   0.00000  -0.00001   0.00000  -0.00000
-19.97497   0.00013  -0.00028   0.00106  -0.00018   0.00094   0.00000  -0.00060  -0.00045   0.00027   0.00005   0.00002   0.00000   0.00015   0.00010   0.00021   0.00013   0.00003  -0.00000  -0.00004  -0.00003   0.00002   0.00000  -0.00001  -0.00000   0.00002   0.00002  -0.00005  -0.00004   0.00002   0.00000  -0.00006  -0.00005   0.00000   0.00000   0.00002   0.00001   0.00000   0.00000   0.00002   0.00001   0.00002  -0.00000   0.00001   0.00001   0.00002   0.00001  -0.00000  -0.00000  -0.00000  -0.00000   0.00006   0.00005  -0.00040  -0.00058  -0.00016  -0.00031  -0.00011  -0.00015  -0.00002  -0.00003  -0.00011  -0.00009  -0.00010  -0.00030   0.00011  -0.00005  -0.00001  -0.00002   0.00000  -0.00000  -0.00001  -0.00000  -0.00004  -0.00003  -0.00003  -0.00009  -0.00000   0.00000  -0.00001  -0.00002  -0.00002  -0.00001   0.00000   0.00000  -0.00000  -0.00000   0.00000   0.00000   0.00001  -0.00000   0.00000  -0.00000  -0.00000  -0.00000  -0.00007  -0.00003   0.00002   0.00001   0.00001  -0.00001   0.00000  -0.00001  -0.00000  -0.00000   0.00001   0.00000   0.00002   0.00001  -0.00007  -0.00005  -0.00001  -0.00001  -0.00006  -0.00007   0.00002  -0.00000  -0.00001  -0.00001  -0.00001   0.00000  -0.00001  -0.00000   0.00000  -0.00000  -0.00001  -0.00001   0.00000  -0.00001  -0.00000  -0.00000  -0.00000  -0.00000  -0.00000  -0.00000   0.00000   0.00000  -0.00000  -0.00001  -0.00001  -0.00001  -0.00001  -0.00001  -0.00001  -0.00001  -0.00001  -0.00000
-19.92491   0.00039  -0.00026   0.00198  -0.00008   0.00178   0.00009  -0.00098  -0.00050   0.00043   0.00008   0.00002   0.00001   0.00026   0.00011   0.00034   0.00014   0.00006   0.00000  -0.00006  -0.00003   0.00003   0.00001  -0.00002  -0.00001   0.00004   0.00002  -0.00009  -0.00004   0.00004   0.00000  -0.00010  -0.00006   0.00000   0.00000   0.00003   0.00001   0.00000   0.00000   0.00003   0.00002   0.00003   0.00000   0.00002   0.00001   0.00003   0.00001  -0.00001  -0.00000  -0.00000  -0.00000   0.00010   0.00005  -0.00032  -0.00059  -0.00014  -0.00032  -0.00008  -0.00015  -0.00002  -0.00003  -0.00008  -0.00009  -0.00007  -0.00031   0.00021  -0.00004  -0.00001  -0.00002   0.00000  -0.00000  -0.00003  -0.00000  -0.00007  -0.00003  -0.00005  -0.00009  -0.00000   0.00000  -0.00002  -0.00002  -0.00002  -0.00001   0.00000   0.00000  -0.00000  -0.00000   0.00000   0.00000   0.00002   0.00000  -0.00000  -0.00000  -0.00000  -0.00000  -0.00010  -0.00004   0.00003   0.00001   0.00000  -0.00001   0.00003  -0.00001  -0.00000  -0.00000   0.00000   0.00001   0.00002   0.00002  -0.00007  -0.00006  -0.00001  -0.00001  -0.00004  -0.00007   0.00003  -0.00000  -0.00001  -0.00001  -0.00001   0.00000  -0.00001  -0.00000   0.00000  -0.00000  -0.00000  -0.00001   0.00000  -0.00001  -0.00000  -0.00000  -0.00001  -0.00000  -0.00000  -0.00000   0.00000   0.00000  -0.00000  -0.00001  -0.00002  -0.00001  -0.00001  -0.00001  -0.00001  -0.00001  -0.00001  -0.00000
-19.87484   0.00073  -0.00023   0.00323   0.00008   0.00295   0.00024  -0.00150  -0.00057   0.00058   0.00011   0.00002   0.00001   0.00045   0.00014   0.00052   0.00017   0.00009   0.00001  -0.00009  -0.00004   0.00004   0.00001  -0.00002  -0.00001   0.00007   0.00002  -0.00013  -0.00005   0.00006   0.00000  -0.00014  -0.00006   0.00000   0.00000   0.00003   0.00001   0.00000   0.00000   0.00005   0.00002   0.00005   0.00000   0.00002   0.00001   0.00004   0.00001  -0.00001  -0.00000  -0.00001  -0.00000   0.00015   0.00006  -0.00025  -0.00061  -0.00012  -0.00033  -0.00005  -0.00015  -0.00002  -0.00003  -0.00005  -0.00010  -0.00003  -0.00031   0.00035  -0.00002  -0.00001  -0.00002   0.00000   0.00000  -0.00004  -0.00000  -0.00012  -0.00004  -0.00008  -0.00010  -0.00000  -0.00000  -0.00002  -0.00002  -0.00002  -0.00001   0.00000   0.00000  -0.00000  -0.00000   0.00000   0.00000   0.00004   0.00000  -0.00000  -0.00000  -0.00000  -0.00000  -0.00013  -0.00004   0.00004   0.00001  -0.00001  -0.00001   0.00006  -0.00001  -0.00001  -0.00000   0.00000   0.00001   0.00001   0.00002  -0.00007  -0.00006  -0.00002  -0.00001  -0.00003  -0.00007   0.00005   0.00000  -0.00001  -0.00001  -0.00001   0.00000  -0.00001  -0.00001  -0.00000  -0.00000  -0.00000  -0.00001   0.00000  -0.00001  -0.00000  -0.00001  -0.00001  -0.00000  -0.00000  -0.00000   0.00000   0.00000   0.00000  -0.00001  -0.00002  -0.00001  -0.00000  -0.00001  -0.00000  -0.00001  -0.00000  -0.00000
-19.82478   0.00111  -0.00017   0.00466   0.00031   0.00431   0.00045  -0.00208  -0.00067   0.00071   0.00014   0.00002   0.00001   0.00070   0.00017   0.00072   0.00021   0.00013   0.00001  -0.00012  -0.00005   0.00004   0.00001  -0.00001  -0.00001   0.00010   0.00003  -0.00018  -0.00006   0.00008   0.00001  -0.00020  -0.00007   0.00000   0.00000   0.00002   0.00001   0.00000   0.00000   0.00007   0.00002   0.00007   0.00001   0.00003   0.00001   0.00005   0.00001  -0.00000  -0.00000  -0.00001  -0.00000   0.00020   0.00007  -0.00020  -0.00062  -0.00012  -0.00033  -0.00003  -0.00015  -0.00002  -0.00003  -0.00002  -0.00010   0.00000  -0.00031   0.00050   0.00000  -0.00002  -0.00002   0.00001   0.00000  -0.00005  -0.00001  -0.00017  -0.00005  -0.00013  -0.00010  -0.00000  -0.00000  -0.00003  -0.00002  -0.00002  -0.00001   0.00000   0.00000  -0.00000  -0.00000   0.00001   0.00000   0.00005   0.00000  -0.00000  -0.00000  -0.00000  -0.00000  -0.00016  -0.00005   0.00005   0.00002  -0.00002  -0.00001   0.00009  -0.00000  -0.00001  -0.00000   0.00000   0.00001   0.00001   0.00002  -0.00007  -0.00006  -0.00003  -0.00001  -0.00002  -0.00008   0.00007   0.00000  -0.00001  -0.00001  -0.00001  -0.00000  -0.00002  -0.00001  -0.00000  -0.00000  -0.00000  -0.00001   0.00000  -0.00000  -0.00000  -0.00001  -0.00002  -0.00001  -0.00000  -0.00000   0.00000   0.00000   0.00001  -0.00001  -0.00002  -0.00001  -0.00000  -0.00001   0.00000  -0.00001  -0.00001  -0.00000
-19.77472   0.00146  -0.00010   0.00599   0.00061   0.00559   0.00073  -0.00260  -0.00081   0.00078   0.00018   0.00000   0.00001   0.00096   0.00022   0.00090   0.00025   0.00017   0.00002  -0.00015  -0.00005   0.00005   0.00001  -0.00001  -0.00001   0.00014   0.00003  -0.00022  -0.00007   0.00011   0.00001  -0.00025  -0.00009   0.00000   0.00000   0.00000   0.00001   0.00000   0.00000   0.00009   0.00003   0.00009   0.00001   0.00004   0.00001   0.00006   0.00002   0.00000  -0.00000  -0.00002  -0.00000   0.00025   0.00008  -0.00016  -0.00062  -0.00012  -0.00034  -0.00002  -0.00015  -0.00002  -0.00003  -0.00000  -0.00010   0.00004  -0.00030   0.00064   0.00003  -0.00003  -0.00002   0.00001   0.00000  -0.00006  -0.00001  -0.00021  -0.00006  -0.00017  -0.00011  -0.00000  -0.00000  -0.00004  -0.00003  -0.00002  -0.00001   0.00000   0.00000  -0.00000  -0.00000   0.00001   0.00000   0.00007   0.00001  -0.00001  -0.00000  -0.00000  -0.00000  -0.00017  -0.00006   0.00006   0.00002  -0.00003  -0.00001   0.00012   0.00001  -0.00001  -0.00000   0.00000   0.00001   0.00001   0.00002  -0.00008  -0.00007  -0.00003  -0.00001  -0.00001  -0.00008   0.00009   0.00001  -0.00001  -0.00001  -0.00002  -0.00000  -0.00002  -0.00001  -0.00000  -0.00000  -0.00000  -0.00001   0.00000  -0.00000  -0.00000  -0.00001  -0.00003  -0.00001  -0.00000  -0.00000   0.00000   0.00000   0.00001  -0.00001  -0.00003  -0.00001  -0.00000  -0.00001   0.00000  -0.00001  -0.00001  -0.00000
-19.72466   0.00170  -0.00001   0.00688   0.00095   0.00646   0.00106  -0.00293  -0.00095   0.00079   0.00022  -0.00001   0.00001   0.00113   0.00028   0.00101   0.00030   0.00020   0.00003  -0.00017  -0.00006   0.00005   0.00001   0.00000  -0.00001   0.00017   0.00004  -0.00025  -0.00008   0.00013   0.00002  -0.00028  -0.00010   0.00000   0.00000  -0.00001   0.00001   0.00000   0.00000   0.00010   0.00003   0.00010   0.00002   0.00005   0.00002   0.00006   0.00002   0.00000  -0.00000  -0.00002  -0.00000   0.00029   0.00010  -0.00015  -0.00063  -0.00012  -0.00034  -0.00001  -0.00016  -0.00002  -0.00004   0.00001  -0.00010   0.00008  -0.00030   0.00073   0.00007  -0.00003  -0.00002   0.00001   0.00000  -0.00006  -0.00001  -0.00023  -0.00007  -0.00020  -0.00012  -0.00000  -0.00000  -0.00004  -0.00003  -0.00002  -0.00001   0.00000   0.00000  -0.00000  -0.00000   0.00001   0.00000   0.00007   0.00001  -0.00001  -0.00000  -0.00000  -0.00000  -0.00017  -0.00007   0.00006   0.00002  -0.00005  -0.00001   0.00013   0.00001  -0.00001  -0.00000   0.00000   0.00001   0.00001   0.00002  -0.00009  -0.00007  -0.00004  -0.00001  -0.00001  -0.00008   0.00010   0.00001  -0.00001  -0.00001  -0.00002  -0.00000  -0.00002  -0.00001  -0.00000  -0.00000  -0.00000  -0.00001   0.00000  -0.00000  -0.00000  -0.00001  -0.00004  -0.00001   0.00000  -0.00000  -0.00000   0.00000   0.00001  -0.00000  -0.00003  -0.00001   0.00000  -0.00001   0.00001  -0.00001  -0.00001  -0.00001
-19.67459   0.00176   0.00007   0.00706   0.00131   0.00665   0.00139  -0.00295  -0.00110   0.00076   0.00026  -0.00002   0.00001   0.00118   0.00034   0.00102   0.00035   0.00021   0.00004  -0.00017  -0.00007   0.00005   0.00002   0.00001  -0.00001   0.00018   0.00005  -0.00025  -0.00009   0.00013   0.00003  -0.00028  -0.00011   0.00000   0.00000  -0.00002   0.00001   0.00000   0.00000   0.00010   0.00004   0.00011   0.00002   0.00005   0.00002   0.00006   0.00002   0.00001  -0.00000  -0.00002  -0.00001   0.00029   0.00011  -0.00013  -0.00064  -0.00011  -0.00035  -0.00001  -0.00016  -0.00002  -0.00004   0.00001  -0.00010   0.00011  -0.00030   0.00074   0.00011  -0.00003  -0.00003   0.00000   0.00000  -0.00005  -0.00001  -0.00022  -0.00008  -0.00021  -0.00013  -0.00000  -0.00000  -0.00004  -0.00003  -0.00002  -0.00001   0.00000   0.00000  -0.00000  -0.00000   0.00001   0.00000   0.00007   0.00002  -0.00001  -0.00000  -0.00000  -0.00000  -0.00014  -0.00008   0.00005   0.00002  -0.00006  -0.00001   0.00013   0.00002  -0.00001  -0.00001   0.00000   0.00001   0.00001   0.00002  -0.00008  -0.00008  -0.00004  -0.00001  -0.00000  -0.00008   0.00010   0.00002  -0.00001  -0.00001  -0.00002  -0.00000  -0.00002  -0.00001  -0.00001  -0.00000  -0.00000  -0.00001   0.00000  -0.00000  -0.00000  -0.00001  -0.00004  -0.00001   0.00000  -0.00000  -0.00000   0.00000   0.00001  -0.00000  -0.00003  -0.00001   0.00000  -0.00001   0.00001  -0.00001  -0.00001  -0.00001
-19.62453   0.00162   0.00016   0.00649   0.00163   0.00611   0.00169  -0.00268  -0.00123   0.00068   0.00029  -0.00002   0.00001   0.00107   0.00039   0.00093   0.00040   0.00019   0.00005  -0.00016  -0.00008   0.00004   0.00002   0.00001  -0.00001   0.00016   0.00006  -0.00023  -0.00011   0.00012   0.00003  -0.00026  -0.00013   0.00000   0.00000  -0.00002   0.00001   0.00000   0.00000   0.00009   0.00004   0.00010   0.00003   0.00004   0.00002   0.00005   0.00002   0.00001  -0.00000  -0.00002  -0.00001   0.00026   0.00012  -0.00011  -0.00064  -0.00010  -0.00035  -0.00001  -0.00016  -0.00002  -0.00004   0.00001  -0.00010   0.00012  -0.00029   0.00067   0.00014  -0.00003  -0.00003   0.00000   0.00000  -0.00004  -0.00002  -0.00018  -0.00009  -0.00020  -0.00014  -0.00000  -0.00000  -0.00003  -0.00003  -0.00001  -0.00002   0.00000   0.00000  -0.00000  -0.00000   0.00001   0.00000   0.00007   0.00002  -0.00001  -0.00000  -0.00000  -0.00000  -0.00011  -0.00008   0.00004   0.00003  -0.00006  -0.00002   0.00011   0.00002  -0.00001  -0.00001   0.00000   0.00001   0.00001   0.00002  -0.00007  -0.00008  -0.00003  -0.00002  -0.00000  -0.00008   0.00009   0.00002  -0.00001  -0.00001  -0.00002  -0.00000  -0.00002  -0.00001  -0.00000  -0.00000  -0.00000  -0.00001   0.00000  -0.00000  -0.00000  -0.00001  -0.00003  -0.00001   0.00000  -0.00000  -0.00000   0.00000   0.00001  -0.00000  -0.00002  -0.00002   0.00000  -0.00001   0.00001  -0.00001  -0.00001  -0.00001
-19.57447   0.00134   0.00022   0.00533   0.00190   0.00501   0.00195  -0.00218  -0.00134   0.00058   0.00032  -0.00001   0.00000   0.00085   0.00043   0.00075   0.00044   0.00016   0.00006  -0.00013  -0.00008   0.00003   0.00002   0.00001  -0.00001   0.00013   0.00007  -0.00018  -0.00011   0.00010   0.00004  -0.00021  -0.00014   0.00000   0.00000  -0.00001   0.00001   0.00000   0.00000   0.00007   0.00004   0.00008   0.00003   0.00003   0.00002   0.00004   0.00003   0.00000  -0.00000  -0.00001  -0.00001   0.00021   0.00013  -0.00008  -0.00065  -0.00007  -0.00036  -0.00001  -0.00016  -0.00002  -0.00004   0.00001  -0.00009   0.00011  -0.00028   0.00053   0.00017  -0.00002  -0.00003   0.00000   0.00000  -0.00003  -0.00002  -0.00014  -0.00010  -0.00016  -0.00015  -0.00000  -0.00000  -0.00003  -0.00003  -0.00001  -0.00002   0.00000   0.00000  -0.00000  -0.00000   0.00001   0.00000   0.00005   0.00002  -0.00001  -0.00000  -0.00000  -0.00000  -0.00008  -0.00008   0.00003   0.00003  -0.00005  -0.00002   0.00009   0.00003  -0.00001  -0.00001   0.00000   0.00001   0.00001   0.00002  -0.00005  -0.00008  -0.00002  -0.00002  -0.00000  -0.00008   0.00007   0.00003  -0.00001  -0.00001  -0.00002  -0.00001  -0.00001  -0.00001  -0.00000  -0.00000  -0.00000  -0.00001   0.00000  -0.00000  -0.00000  -0.00001  -0.00003  -0.00001   0.00000  -0.00000  -0.00000   0.00000   0.00001  -0.00000  -0.00002  -0.00002   0.00000  -0.00001   0.00000  -0.00001  -0.00000  -0.00001
-19.52441   0.00098   0.00027   0.00392   0.00210   0.00367   0.00213  -0.00159  -0.00142   0.00045   0.00034  -0.00000   0.00000   0.00059   0.00046   0.00055   0.00046   0.00011   0.00007  -0.00009  -0.00009   0.00003   0.00002   0.00000  -0.00001   0.00009   0.00007  -0.00013  -0.00012   0.00007   0.00004  -0.00015  -0.00015   0.00000   0.00000  -0.00000   0.00001   0.00000   0.00000   0.00005   0.00005   0.00006   0.00003   0.00002   0.00002   0.00003   0.00003   0.00000  -0.00000  -0.00001  -0.00001   0.00016   0.00014  -0.00006  -0.00065  -0.00005  -0.00036  -0.00000  -0.00016  -0.00001  -0.00004   0.00001  -0.00009   0.00009  -0.00028   0.00038   0.00019  -0.00002  -0.00003   0.00000   0.00000  -0.00002  -0.00002  -0.00009  -0.00010  -0.00012  -0.00016  -0.00000  -0.00000  -0.00002  -0.00003  -0.00001  -0.00002   0.00000   0.00000  -0.00000  -0.00000   0.00000   0.00000   0.00004   0.00002  -0.00001  -0.00000  -0.00000  -0.00000  -0.00005  -0.00009   0.00002   0.00003  -0.00004  -0.00002   0.00006   0.00003  -0.00001  -0.00001   0.00000   0.00001   0.00001   0.00002  -0.00004  -0.00009  -0.00002  -0.00002  -0.00000  -0.00008   0.00005   0.00003  -0.00000  -0.00001  -0.00001  -0.00001  -0.00001  -0.00001  -0.00000  -0.00000  -0.00000  -0.00001   0.00000  -0.00000  -0.00000  -0.00001  -0.00002  -0.00001   0.00000  -0.00000  -0.00000   0.00000   0.00000  -0.00000  -0.00001  -0.00002   0.00000  -0.00001   0.00000  -0.00001  -0.00000  -0.00001
-19.47434   0.00065   0.00030   0.00258   0.00222   0.00240   0.00225  -0.00104  -0.00147   0.00033   0.00036   0.00000   0.00000   0.00037   0.00048   0.00036   0.00048   0.00008   0.00007  -0.00006  -0.00009   0.00002   0.00002  -0.00000  -0.00001   0.00006   0.00007  -0.00009  -0.00013   0.00005   0.00004  -0.00010  -0.00015   0.00000   0.00000   0.00000   0.00001   0.00000   0.00000   0.00004   0.00005   0.00004   0.00004   0.00002   0.00003   0.00002   0.00003  -0.00000  -0.00000  -0.00001  -0.00001   0.00010   0.00015  -0.00004  -0.00065  -0.00003  -0.00036  -0.00000  -0.00016  -0.00001  -0.00004   0.00000  -0.00009   0.00006  -0.00028   0.00024   0.00020  -0.00001  -0.00003   0.00000   0.00000  -0.00001  -0.00002  -0.00006  -0.00010  -0.00008  -0.00016  -0.00000  -0.00000  -0.00001  -0.00003  -0.00000  -0.00002   0.00000   0.00000  -0.00000  -0.00000   0.00000   0.00000   0.00002   0.00002  -0.00000  -0.00000  -0.00000  -0.00000  -0.00002  -0.00009   0.00001   0.00003  -0.00002  -0.00002   0.00004   0.00003  -0.00000  -0.00001   0.00000   0.00001   0.00000   0.00002  -0.00002  -0.00009  -0.00001  -0.00002  -0.00000  -0.00008   0.00003   0.00003  -0.00000  -0.00001  -0.00001  -0.00001  -0.00001  -0.00001  -0.00000  -0.00000  -0.00000  -0.00001   0.00000  -0.00000  -0.00000  -0.00001  -0.00001  -0.00002   0.00000  -0.00000  -0.00000   0.00000   0.00000  -0.00000  -0.00001  -0.00002   0.00000  -0.00001   0.00000  -0.00001  -0.00000  -0.00001
-19.42428   0.00038   0.00032   0.00152   0.00230   0.00141   0.00232  -0.00061  -0.00150   0.00021   0.00037   0.00000   0.00000   0.00020   0.00049   0.00021   0.00049   0.00004   0.00007  -0.00004  -0.00009   0.00001   0.00002  -0.00000  -0.00001   0.00003   0.00007  -0.00005  -0.00013   0.00003   0.00005  -0.00006  -0.00015   0.00000   0.00000   0.00000   0.00001   0.00000   0.00000   0.00002   0.00005   0.00002   0.00004   0.00001   0.00003   0.00002   0.00003  -0.00000  -0.00000  -0.00000  -0.00001   0.00006   0.00015  -0.00002  -0.00065  -0.00002  -0.00036  -0.00000  -0.00016  -0.00000  -0.00004   0.00000  -0.00009   0.00004  -0.00027   0.00014   0.00020  -0.00001  -0.00003  -0.00000   0.00000  -0.00000  -0.00002  -0.00003  -0.00011  -0.00004  -0.00016  -0.00000  -0.00000  -0.00001  -0.00003  -0.00000  -0.00002   0.00000   0.00000   0.00000  -0.00000   0.00000   0.00000   0.00001   0.00003  -0.00000  -0.00000  -0.00000  -0.00000  -0.00001  -0.00009   0.00001   0.00003  -0.00001  -0.00002   0.00002   0.00003  -0.00000  -0.00001   0.00000   0.00001   0.00000   0.00002  -0.00001  -0.00009  -0.00001  -0.00002  -0.00000  -0.00008   0.00002   0.00003  -0.00000  -0.00001  -0.00001  -0.00001  -0.00000  -0.00001  -0.00000  -0.00000  -0.00000  -0.00001   0.00000  -0.00000  -0.00000  -0.00001  -0.00001  -0.00002   0.00000  -0.00000  -0.00000   0.00000   0.00000  -0.00000  -0.00000  -0.00002   0.00000  -0.00001   0.00000  -0.00001  -0.00000  -0.00001
-19.37422   0.00020   0.00033   0.00080   0.00234   0.00074   0.00236  -0.00032  -0.00152   0.00012   0.00038   0.00000   0.00000   0.00010   0.00049   0.00011   0.00050   0.00002   0.00007  -0.00002  -0.00009   0.00001   0.00002  -0.00000  -0.00001   0.00001   0.00007  -0.00003  -0.00013   0.00001   0.00005  -0.00003  -0.00016   0.00000   0.00000   0.00000   0.00001   0.00000   0.00000   0.00001   0.00005   0.00001   0.00004   0.00000   0.00003   0.00001   0.00003  -0.00000  -0.00000  -0.00000  -0.00001   0.00003   0.00015  -0.00001  -0.00065  -0.00001  -0.00036  -0.00000  -0.00016  -0.00000  -0.00004   0.00000  -0.00009   0.00002  -0.00027   0.00007   0.00021  -0.00000  -0.00003  -0.00000   0.00000  -0.00000  -0.00002  -0.00001  -0.00011  -0.00002  -0.00016  -0.00000  -0.00000  -0.00000  -0.00003  -0.00000  -0.00002   0.00000   0.00000   0.00000  -0.00000   0.00000   0.00000   0.00001   0.00003  -0.00000  -0.00000  -0.00000  -0.00000  -0.00000  -0.00009   0.00000   0.00003  -0.00001  -0.00002   0.00001   0.00004  -0.00000  -0.00001   0.00000   0.00001   0.00000   0.00002  -0.00001  -0.00009  -0.00000  -0.00002  -0.00000  -0.00008   0.00001   0.00003  -0.00000  -0.00001  -0.00000  -0.00001  -0.00000  -0.00001  -0.00000  -0.00000  -0.00000  -0.00001   0.00000  -0.00000  -0.00000  -0.00001  -0.00000  -0.00002   0.00000  -0.00000  -0.00000   0.00000   0.00000  -0.00000  -0.00000  -0.00002   0.00000  -0.00001   0.00000  -0.00001  -0.00000  -0.00001
-19.32416   0.00009   0.00034   0.00038   0.00236   0.00035   0.00237  -0.00015  -0.00153   0.00006   0.00038   0.00000   0.00001   0.00004   0.00050   0.00005   0.00050   0.00001   0.00007  -0.00001  -0.00010   0.00000   0.00002  -0.00000  -0.00001   0.00001   0.00008  -0.00001  -0.00013   0.00001   0.00005  -0.00001  -0.00016   0.00000   0.00000   0.00000   0.00001   0.00000   0.00000   0.00001   0.00005   0.00001   0.00004   0.00000   0.00003   0.00001   0.00003  -0.00000  -0.00000  -0.00000  -0.00001   0.00001   0.00015  -0.00001  -0.00065  -0.00001  -0.00036  -0.00000  -0.00016  -0.00000  -0.00004   0.00000  -0.00009   0.00001  -0.00027   0.00003   0.00021  -0.00000  -0.00003  -0.00000   0.00000  -0.00000  -0.00002  -0.00001  -0.00011  -0.00001  -0.00016  -0.00000  -0.00000  -0.00000  -0.00003  -0.00000  -0.00002   0.00000   0.00000   0.00000  -0.00000   0.00000   0.00000   0.00000   0.00003  -0.00000  -0.00000   0.00000  -0.00000  -0.00000  -0.00009   0.00000   0.00003  -0.00000  -0.00002   0.00000   0.00004  -0.00000  -0.00001   0.00000   0.00001   0.00000   0.00002  -0.00000  -0.00009  -0.00000  -0.00002  -0.00000  -0.00008   0.00000   0.00003  -0.00000  -0.00001  -0.00000  -0.00001  -0.00000  -0.00001  -0.00000  -0.00000  -0.00000  -0.00001  -0.00000  -0.00000  -0.00000  -0.00001  -0.00000  -0.00002   0.00000  -0.00000  -0.00000   0.00000   0.00000  -0.00000  -0.00000  -0.00002   0.00000  -0.00001   0.00000  -0.00001  -0.00000  -0.00001
-19.27409   0.00004   0.00034   0.00016   0.00237   0.00015   0.00238  -0.00006  -0.00153   0.00003   0.00038   0.00000   0.00001   0.00001   0.00050   0.00002   0.00050   0.00000   0.00007  -0.00000  -0.00010   0.00000   0.00002  -0.00000  -0.00001   0.00000   0.00008  -0.00001  -0.00013   0.00000   0.00005  -0.00001  -0.00016   0.00000   0.00000   0.00000   0.00001   0.00000   0.00000   0.00000   0.00005   0.00000   0.00004   0.00000   0.00003   0.00000   0.00003  -0.00000  -0.00000  -0.00000  -0.00001   0.00001   0.00015  -0.00001  -0.00065  -0.00000  -0.00036  -0.00000  -0.00016  -0.00000  -0.00004  -0.00000  -0.00009   0.00000  -0.00027   0.00001   0.00021  -0.00000  -0.00003  -0.00000   0.00000  -0.00000  -0.00002  -0.00000  -0.00011  -0.00000  -0.00016  -0.00000  -0.00000  -0.00000  -0.00003  -0.00000  -0.00002   0.00000   0.00000  -0.00000  -0.00000   0.00000   0.00000   0.00000   0.00003  -0.00000  -0.00000   0.00000  -0.00000  -0.00000  -0.00009   0.00000   0.00003  -0.00000  -0.00002   0.00000   0.00004  -0.00000  -0.00001  -0.00000   0.00001   0.00000   0.00002  -0.00000  -0.00009  -0.00000  -0.00002  -0.00000  -0.00008   0.00000   0.00003  -0.00000  -0.00001  -0.00000  -0.00001  -0.00000  -0.00001   0.00000  -0.00000   0.00000  -0.00001  -0.00000  -0.00000  -0.00000  -0.00001  -0.00000  -0.00002  -0.00000  -0.00000   0.00000   0.00000  -0.00000  -0.00000  -0.00000  -0.00002   0.00000  -0.00001   0.00000  -0.00001  -0.00000  -0.00001
-19.22403   0.00001   0.00034   0.00006   0.00237   0.00005   0.00238  -0.00002  -0.00153   0.00001   0.00038   0.00000   0.00001   0.00000   0.00050   0.00001   0.00050   0.00000   0.00007  -0.00000  -0.00010   0.00000   0.00002  -0.00000  -0.00001   0.00000   0.00008  -0.00000  -0.00013   0.00000   0.00005  -0.00000  -0.00016   0.00000   0.00000   0.00000   0.00001   0.00000   0.00000   0.00000   0.00005   0.00000   0.00004   0.00000   0.00003   0.00000   0.00003  -0.00000  -0.00000  -0.00000  -0.00001   0.00000   0.00015  -0.00000  -0.00065  -0.00000  -0.00036  -0.00000  -0.00016  -0.00000  -0.00004  -0.00000  -0.00009   0.00000  -0.00027   0.00000   0.00021  -0.00000  -0.00003  -0.00000   0.00000  -0.00000  -0.00002  -0.00000  -0.00011  -0.00000  -0.00016  -0.00000  -0.00000  -0.00000  -0.00003  -0.00000  -0.00002   0.00000   0.00000  -0.00000  -0.00000   0.00000   0.00000   0.00000   0.00003  -0.00000  -0.00000   0.00000  -0.00000  -0.00000  -0.00009   0.00000   0.00003  -0.00000  -0.00002   0.00000   0.00004  -0.00000  -0.00001  -0.00000   0.00001   0.00000   0.00002  -0.00000  -0.00009  -0.00000  -0.00002  -0.00000  -0.00008   0.00000   0.00003  -0.00000  -0.00001  -0.00000  -0.00001  -0.00000  -0.00001   0.00000  -0.00000   0.00000  -0.00001  -0.00000  -0.00000  -0.00000  -0.00001   0.00000  -0.00002  -0.00000  -0.00000   0.00000   0.00000  -0.00000  -0.00000  -0.00000  -0.00002   0.00000  -0.00001   0.00000  -0.00001  -0.00000  -0.00001
-19.17397   0.00000   0.00034   0.00002   0.00237   0.00002   0.00239  -0.00001  -0.00153   0.00000   0.00038   0.00000   0.00001   0.00000   0.00050   0.00000   0.00050   0.00000   0.00007  -0.00000  -0.00010   0.00000   0.00002  -0.00000  -0.00001   0.00000   0.00008  -0.00000  -0.00013   0.00000   0.00005  -0.00000  -0.00016   0.00000   0.00000   0.00000   0.00001   0.00000   0.00000   0.00000   0.00005   0.00000   0.00004   0.00000   0.00003   0.00000   0.00003  -0.00000  -0.00000  -0.00000  -0.00001   0.00000   0.00015  -0.00000  -0.00065  -0.00000  -0.00036  -0.00000  -0.00016  -0.00000  -0.00004  -0.00000  -0.00009   0.00000  -0.00027   0.00000   0.00021  -0.00000  -0.00003  -0.00000   0.00000   0.00000  -0.00002  -0.00000  -0.00011  -0.00000  -0.00016  -0.00000  -0.00000  -0.00000  -0.00003  -0.00000  -0.00002   0.00000   0.00000  -0.00000  -0.00000   0.00000   0.00000   0.00000   0.00003  -0.00000  -0.00000   0.00000  -0.00000   0.00000  -0.00009   0.00000   0.00003  -0.00000  -0.00002   0.00000   0.00004  -0.00000  -0.00001   0.00000   0.00001   0.00000   0.00002  -0.00000  -0.00009  -0.00000  -0.00002  -0.00000  -0.00008  -0.00000   0.00003  -0.00000  -0.00001   0.00000  -0.00001   0.00000  -0.00001   0.00000  -0.00000   0.00000  -0.00001  -0.00000  -0.00000  -0.00000  -0.00001   0.00000  -0.00002  -0.00000  -0.00000   0.00000   0.00000  -0.00000  -0.00000  -0.00000  -0.00002   0.00000  -0.00001   0.00000  -0.00001  -0.00000  -0.00001