 vasp.5.4.4.18Apr17-6-g9f103f2a35 (build Oct 20 2021 08:33:53) complex           
 executed on             LinuxGNU date 2025.03.08  14:10:41
 running on   32 total cores
 distrk:  each k-point on   32 cores,    1 groups
 distr:  one band on NCORES_PER_BAND=   4 cores,    8 groups


--------------------------------------------------------------------------------------------------------


 INCAR:
 POTCAR:    PAW_PBE C 08Apr2002                   
 POTCAR:    PAW_PBE H 15Jun2001                   
 POTCAR:    PAW_PBE O 08Apr2002                   
 POTCAR:    PAW_PBE Si 05Jan2001                  
 POTCAR:    PAW_PBE W 08Apr2002                   
 POTCAR:    PAW_PBE C 08Apr2002                   
   VRHFIN =C: s2p2                                                              
   LEXCH  = PE                                                                  
   EATOM  =   147.1560 eV,   10.8157 Ry                                         
                                                                                
   TITEL  = PAW_PBE C 08Apr2002                                                 
   LULTRA =        F    use ultrasoft PP ?                                      
   IUNSCR =        1    unscreen: 0-lin 1-nonlin 2-no                           
   RPACOR =    1.200    partial core radius                                     
   POMASS =   12.011; ZVAL   =    4.000    mass and valenz                      
   RCORE  =    1.500    outmost cutoff radius                                   
   RWIGS  =    1.630; RWIGS  =    0.863    wigner-seitz radius (au A)           
   ENMAX  =  400.000; ENMIN  =  300.000 eV                                      
   ICORE  =        2    local potential                                         
   LCOR   =        T    correct aug charges                                     
   LPAW   =        T    paw PP                                                  
   EAUG   =  644.873                                                            
   DEXC   =    0.000                                                            
   RMAX   =    1.529    core radius for proj-oper                               
   RAUG   =    1.300    factor for augmentation sphere                          
   RDEP   =    1.501    radius for radial grids                                 
   RDEPT  =    1.300    core radius for aug-charge                              
                                                                                
   Atomic configuration                                                         
    4 entries                                                                   
     n  l   j            E        occ.                                          
     1  0  0.50      -273.3789   2.0000                                         
     2  0  0.50       -13.7508   2.0000                                         
     2  1  0.50        -5.2854   2.0000                                         
     3  2  1.50        -5.4423   0.0000                                         
   Description                                                                  
     l       E           TYP  RCUT    TYP  RCUT                                 
     0    -13.7508458     23  1.200                                             
     0     -8.2022199     23  1.200                                             
     1     -5.2854383     23  1.500                                             
     1     34.0145650     23  1.500                                             
     2     -5.4423304      7  1.500                                             
  local pseudopotential read in
  partial core-charges read in
  partial kinetic energy density read in
  atomic valenz-charges read in
  non local Contribution for L=           0  read in
    real space projection operators read in
  non local Contribution for L=           0  read in
    real space projection operators read in
  non local Contribution for L=           1  read in
    real space projection operators read in
  non local Contribution for L=           1  read in
    real space projection operators read in
    PAW grid and wavefunctions read in

   number of l-projection  operators is LMAX  =           4
   number of lm-projection operators is LMMAX =           8

 POTCAR:    PAW_PBE H 15Jun2001                   
   VRHFIN =H: ultrasoft test                                                    
   LEXCH  = PE                                                                  
   EATOM  =    12.4884 eV,    0.9179 Ry                                         
                                                                                
   TITEL  = PAW_PBE H 15Jun2001                                                 
   LULTRA =        F    use ultrasoft PP ?                                      
   IUNSCR =        0    unscreen: 0-lin 1-nonlin 2-no                           
   RPACOR =    0.000    partial core radius                                     
   POMASS =    1.000; ZVAL   =    1.000    mass and valenz                      
   RCORE  =    1.100    outmost cutoff radius                                   
   RWIGS  =    0.700; RWIGS  =    0.370    wigner-seitz radius (au A)           
   ENMAX  =  250.000; ENMIN  =  200.000 eV                                      
   RCLOC  =    0.701    cutoff for local pot                                    
   LCOR   =        T    correct aug charges                                     
   LPAW   =        T    paw PP                                                  
   EAUG   =  400.000                                                            
   RMAX   =    1.123    core radius for proj-oper                               
   RAUG   =    1.200    factor for augmentation sphere                          
   RDEP   =    1.112    radius for radial grids                                 
   RDEPT  =    0.926    core radius for aug-charge                              
                                                                                
   Atomic configuration                                                         
    2 entries                                                                   
     n  l   j            E        occ.                                          
     1  0  0.50        -6.4927   1.0000                                         
     2  1  0.50        -3.4015   0.0000                                         
   Description                                                                  
     l       E           TYP  RCUT    TYP  RCUT                                 
     0     -6.4927494     23  1.100                                             
     0      6.8029130     23  1.100                                             
     1     -4.0817478     23  1.100                                             
  local pseudopotential read in
  atomic valenz-charges read in
  non local Contribution for L=           0  read in
    real space projection operators read in
  non local Contribution for L=           0  read in
    real space projection operators read in
  non local Contribution for L=           1  read in
    real space projection operators read in
    PAW grid and wavefunctions read in

   number of l-projection  operators is LMAX  =           3
   number of lm-projection operators is LMMAX =           5

 POTCAR:    PAW_PBE O 08Apr2002                   
   VRHFIN =O: s2p4                                                              
   LEXCH  = PE                                                                  
   EATOM  =   432.3788 eV,   31.7789 Ry                                         
                                                                                
   TITEL  = PAW_PBE O 08Apr2002                                                 
   LULTRA =        F    use ultrasoft PP ?                                      
   IUNSCR =        1    unscreen: 0-lin 1-nonlin 2-no                           
   RPACOR =    1.200    partial core radius                                     
   POMASS =   16.000; ZVAL   =    6.000    mass and valenz                      
   RCORE  =    1.520    outmost cutoff radius                                   
   RWIGS  =    1.550; RWIGS  =    0.820    wigner-seitz radius (au A)           
   ENMAX  =  400.000; ENMIN  =  300.000 eV                                      
   ICORE  =        2    local potential                                         
   LCOR   =        T    correct aug charges                                     
   LPAW   =        T    paw PP                                                  
   EAUG   =  605.392                                                            
   DEXC   =    0.000                                                            
   RMAX   =    1.553    core radius for proj-oper                               
   RAUG   =    1.300    factor for augmentation sphere                          
   RDEP   =    1.550    radius for radial grids                                 
   RDEPT  =    1.329    core radius for aug-charge                              
                                                                                
   Atomic configuration                                                         
    4 entries                                                                   
     n  l   j            E        occ.                                          
     1  0  0.50      -514.6923   2.0000                                         
     2  0  0.50       -23.9615   2.0000                                         
     2  1  0.50        -9.0305   4.0000                                         
     3  2  1.50        -9.5241   0.0000                                         
   Description                                                                  
     l       E           TYP  RCUT    TYP  RCUT                                 
     0    -23.9615318     23  1.200                                             
     0     -9.5240782     23  1.200                                             
     1     -9.0304911     23  1.520                                             
     1      8.1634956     23  1.520                                             
     2     -9.5240782      7  1.500                                             
  local pseudopotential read in
  partial core-charges read in
  partial kinetic energy density read in
  kinetic energy density of atom read in
  atomic valenz-charges read in
  non local Contribution for L=           0  read in
    real space projection operators read in
  non local Contribution for L=           0  read in
    real space projection operators read in
  non local Contribution for L=           1  read in
    real space projection operators read in
  non local Contribution for L=           1  read in
    real space projection operators read in
    PAW grid and wavefunctions read in

   number of l-projection  operators is LMAX  =           4
   number of lm-projection operators is LMMAX =           8

 POTCAR:    PAW_PBE Si 05Jan2001                  
   VRHFIN =Si: s2p2                                                             
   LEXCH  = PE                                                                  
   EATOM  =   103.0669 eV,    7.5752 Ry                                         
                                                                                
   TITEL  = PAW_PBE Si 05Jan2001                                                
   LULTRA =        F    use ultrasoft PP ?                                      
   IUNSCR =        1    unscreen: 0-lin 1-nonlin 2-no                           
   RPACOR =    1.500    partial core radius                                     
   POMASS =   28.085; ZVAL   =    4.000    mass and valenz                      
   RCORE  =    1.900    outmost cutoff radius                                   
   RWIGS  =    2.480; RWIGS  =    1.312    wigner-seitz radius (au A)           
   ENMAX  =  245.345; ENMIN  =  184.009 eV                                      
   ICORE  =        2    local potential                                         
   LCOR   =        T    correct aug charges                                     
   LPAW   =        T    paw PP                                                  
   EAUG   =  322.069                                                            
   DEXC   =    0.000                                                            
   RMAX   =    1.950    core radius for proj-oper                               
   RAUG   =    1.300    factor for augmentation sphere                          
   RDEP   =    1.993    radius for radial grids                                 
   RDEPT  =    1.837    core radius for aug-charge                              
                                                                                
   Atomic configuration                                                         
    6 entries                                                                   
     n  l   j            E        occ.                                          
     1  0  0.50     -1785.8828   2.0000                                         
     2  0  0.50      -139.4969   2.0000                                         
     2  1  1.50       -95.5546   6.0000                                         
     3  0  0.50       -10.8127   2.0000                                         
     3  1  0.50        -4.0811   2.0000                                         
     3  2  1.50        -4.0817   0.0000                                         
   Description                                                                  
     l       E           TYP  RCUT    TYP  RCUT                                 
     0    -10.8127223     23  1.900                                             
     0     -7.6451159     23  1.900                                             
     1     -4.0811372     23  1.900                                             
     1      2.4879257     23  1.900                                             
     2     -4.0817478      7  1.900                                             
  local pseudopotential read in
  partial core-charges read in
  partial kinetic energy density read in
  atomic valenz-charges read in
  non local Contribution for L=           0  read in
    real space projection operators read in
  non local Contribution for L=           0  read in
    real space projection operators read in
  non local Contribution for L=           1  read in
    real space projection operators read in
  non local Contribution for L=           1  read in
    real space projection operators read in
    PAW grid and wavefunctions read in

   number of l-projection  operators is LMAX  =           4
   number of lm-projection operators is LMMAX =           8

 POTCAR:    PAW_PBE W 08Apr2002                   
   VRHFIN =W : 6s5d                                                             
   LEXCH  = PE                                                                  
   EATOM  =   204.6103 eV,   15.0384 Ry                                         
                                                                                
   TITEL  = PAW_PBE W 08Apr2002                                                 
   LULTRA =        F    use ultrasoft PP ?                                      
   IUNSCR =        1    unscreen: 0-lin 1-nonlin 2-no                           
   RPACOR =    2.330    partial core radius                                     
   POMASS =  183.850; ZVAL   =    6.000    mass and valenz                      
   RCORE  =    2.750    outmost cutoff radius                                   
   RWIGS  =    2.750; RWIGS  =    1.455    wigner-seitz radius (au A)           
   ENMAX  =  223.057; ENMIN  =  167.293 eV                                      
   RCLOC  =    2.147    cutoff for local pot                                    
   LCOR   =        T    correct aug charges                                     
   LPAW   =        T    paw PP                                                  
   EAUG   =  373.438                                                            
   DEXC   =    0.000                                                            
   RMAX   =    2.801    core radius for proj-oper                               
   RAUG   =    1.300    factor for augmentation sphere                          
   RDEP   =    2.886    radius for radial grids                                 
   RDEPT  =    2.230    core radius for aug-charge                              
                                                                                
   Atomic configuration                                                         
   16 entries                                                                   
     n  l   j            E        occ.                                          
     1  0  0.50    -69465.5836   2.0000                                         
     2  0  0.50    -11986.2642   2.0000                                         
     2  1  1.50    -10479.8616   6.0000                                         
     3  0  0.50     -2759.0758   2.0000                                         
     3  1  1.50     -2313.1857   6.0000                                         
     3  2  2.50     -1801.1185  10.0000                                         
     4  0  0.50      -567.6791   2.0000                                         
     4  1  1.50      -421.4694   6.0000                                         
     4  2  2.50      -236.3473  10.0000                                         
     4  3  3.50       -31.2666  14.0000                                         
     5  0  0.50       -77.1085   2.0000                                         
     5  1  1.50       -41.3856   6.0000                                         
     5  2  2.50        -3.3185   5.0000                                         
     6  0  0.50        -5.1438   1.0000                                         
     6  1  0.50        -3.8096   0.0000                                         
     5  3  2.50        -1.3606   0.0000                                         
   Description                                                                  
     l       E           TYP  RCUT    TYP  RCUT                                 
     2     -3.3185288     23  2.500                                             
     2     -1.5965414     23  2.500                                             
     0     -5.1438054     23  2.500                                             
     0      4.9117504     23  2.500                                             
     1      2.7211652     23  2.750                                             
     1     27.2116520     23  2.750                                             
  local pseudopotential read in
  partial core-charges read in
  partial kinetic energy density read in
  atomic valenz-charges read in
  non local Contribution for L=           2  read in
    real space projection operators read in
  non local Contribution for L=           2  read in
    real space projection operators read in
  non local Contribution for L=           0  read in
    real space projection operators read in
  non local Contribution for L=           0  read in
    real space projection operators read in
  non local Contribution for L=           1  read in
    real space projection operators read in
  non local Contribution for L=           1  read in
    real space projection operators read in
    PAW grid and wavefunctions read in

   number of l-projection  operators is LMAX  =           6
   number of lm-projection operators is LMMAX =          18

 Optimization of the real space projectors (new method)

 maximal supplied QI-value         = 25.13
 optimisation between [QCUT,QGAM] = [ 11.31, 22.87] = [ 35.82,146.48] Ry 
 Optimized for a Real-space Cutoff    1.00 Angstroem

   l    n(q)    QCUT    max X(q) W(low)/X(q) W(high)/X(q)  e(spline) 
   0      7    11.310   115.676    0.43E-03    0.13E-02    0.19E-06
   0      7    11.310    87.132    0.43E-03    0.13E-02    0.18E-06
   1      6    11.310     4.429    0.42E-03    0.74E-03    0.11E-06
   1      6    11.310     2.733    0.34E-03    0.55E-03    0.92E-07
 Optimization of the real space projectors (new method)

 maximal supplied QI-value         = 34.20
 optimisation between [QCUT,QGAM] = [ 11.29, 22.57] = [ 35.68,142.71] Ry 
 Optimized for a Real-space Cutoff    1.16 Angstroem

   l    n(q)    QCUT    max X(q) W(low)/X(q) W(high)/X(q)  e(spline) 
   0      8    11.287    19.460    0.40E-03    0.73E-03    0.16E-06
   0      8    11.287    12.209    0.38E-03    0.70E-03    0.15E-06
   1      7    11.287     4.655    0.22E-03    0.25E-04    0.22E-06
 Optimization of the real space projectors (new method)

 maximal supplied QI-value         = 24.76
 optimisation between [QCUT,QGAM] = [ 11.39, 22.77] = [ 36.31,145.25] Ry 
 Optimized for a Real-space Cutoff    1.00 Angstroem

   l    n(q)    QCUT    max X(q) W(low)/X(q) W(high)/X(q)  e(spline) 
   0      7    11.387    20.381    0.39E-03    0.13E-02    0.15E-06
   0      7    11.387    15.268    0.42E-03    0.14E-02    0.17E-06
   1      6    11.387     5.964    0.41E-03    0.11E-02    0.17E-06
   1      6    11.387     5.382    0.39E-03    0.87E-03    0.15E-06
 Optimization of the real space projectors (new method)

 maximal supplied QI-value         = 19.84
 optimisation between [QCUT,QGAM] = [ 11.31, 22.82] = [ 35.82,145.81] Ry 
 Optimized for a Real-space Cutoff    1.16 Angstroem

   l    n(q)    QCUT    max X(q) W(low)/X(q) W(high)/X(q)  e(spline) 
   0      8    11.310   159.560    0.27E-03    0.30E-03    0.39E-07
   0      8    11.310   115.863    0.27E-03    0.30E-03    0.38E-07
   1      7    11.310    88.339    0.28E-03    0.28E-03    0.77E-07
   1      7    11.310    48.592    0.27E-03    0.27E-03    0.74E-07
 Optimization of the real space projectors (new method)

 maximal supplied QI-value         = 13.61
 optimisation between [QCUT,QGAM] = [ 11.43, 22.86] = [ 36.58,146.31] Ry 
 Optimized for a Real-space Cutoff    1.56 Angstroem

   l    n(q)    QCUT    max X(q) W(low)/X(q) W(high)/X(q)  e(spline) 
   2     10    11.429   130.855    0.22E-03    0.64E-03    0.11E-05
   2     10    11.429   114.007    0.22E-03    0.64E-03    0.11E-05
   0     11    11.429    84.709    0.39E-04    0.67E-04    0.23E-06
   0     11    11.429    49.163    0.35E-04    0.62E-04    0.21E-06
   1     10    11.429    15.765    0.84E-04    0.15E-03    0.24E-06
   1     10    11.429    10.638    0.58E-04    0.12E-03    0.19E-06

 ----------------------------------------------------------------------------- 
|                                                                             |
|  ADVICE TO THIS USER RUNNING 'VASP/VAMP'   (HEAR YOUR MASTER'S VOICE ...):  |
|                                                                             |
|      You enforced a specific xc-type in the INCAR file,                     |
|      a different type was found on the POTCAR file                          |
|          I HOPE YOU KNOW, WHAT YOU ARE  DOING                               |
|                                                                             |
 ----------------------------------------------------------------------------- 

  PAW_PBE C 08Apr2002                   :
 energy of atom  1       EATOM= -147.1560
 kinetic energy error for atom=    0.0076 (will be added to EATOM!!)
  PAW_PBE H 15Jun2001                   :
 energy of atom  2       EATOM=  -12.4884
 kinetic energy error for atom=    0.0020 (will be added to EATOM!!)
  PAW_PBE O 08Apr2002                   :
 energy of atom  3       EATOM= -432.3788
 kinetic energy error for atom=    0.0224 (will be added to EATOM!!)
  PAW_PBE Si 05Jan2001                  :
 energy of atom  4       EATOM= -103.0669
 kinetic energy error for atom=    0.0006 (will be added to EATOM!!)
  PAW_PBE W 08Apr2002                   :
 energy of atom  5       EATOM= -204.6103
 kinetic energy error for atom=    0.0017 (will be added to EATOM!!)


 POSCAR: C  H  O  Si W                           
  positions in direct lattice
  velocities in cartesian coordinates
 exchange correlation table for  LEXCH =        9
   RHO(1)=    0.500       N(1)  =     2000
   RHO(2)=  100.500       N(2)  =     4000

 VTST: version 3.2, (02/03/18)

 CHAIN: initializing optimizer
 
 OPT: Using VASP Conjugate-Gradient optimizer
 CHAIN: Read ICHAIN            0

 POSCAR: C  H  O  Si W                           
  positions in direct lattice
  velocities in cartesian coordinates



--------------------------------------------------------------------------------------------------------


 ion  position               nearest neighbor table
   1  0.517  0.472  0.742-  50 1.09  51 1.10 279 1.92
   2  0.411  0.533  0.772-  52 1.09   3 1.38   4 1.51 279 2.66
   3  0.370  0.520  0.736-  53 1.10   2 1.38   5 1.51 279 2.57
   4  0.435  0.609  0.784-  55 1.10  54 1.10  56 1.10   2 1.51
   5  0.329  0.456  0.737-  57 1.10  58 1.10  59 1.10   3 1.51
   6  0.761  0.103  0.651- 134 0.97
   7  0.926  0.279  0.356-  82 0.98
   8  0.793  0.207  0.373- 117 0.97
   9  0.975  0.944  0.325- 126 0.97
  10  0.626  0.963  0.375- 128 0.98
  11  0.821  0.995  0.369- 146 0.97
  12  0.750  0.141  0.458- 184 0.98
  13  0.916  0.249  0.506- 189 0.97
  14  0.583  0.304  0.306- 194 0.97
  15  0.889  0.334  0.615- 100 0.98
  16  0.591  0.360  0.614- 145 0.97
  17  0.593  0.872  0.578- 187 0.99
  18  0.021  0.331  0.662- 193 0.97
  19  0.935  0.420  0.454- 182 0.98
  20  0.746  0.530  0.422-  96 1.00
  21  0.796  0.381  0.633- 174 0.97
  22  0.591  0.569  0.378- 108 0.99
  23  0.718  0.646  0.383- 131 0.99
  24  0.841  0.542  0.420- 137 0.98
  25  0.005  0.604  0.358- 142 0.97
  26  0.828  0.712  0.468- 183 0.99
  27  0.875  0.599  0.722-  62 0.97
  28  0.520  0.986  0.422- 144 0.99
  29  0.223  0.980  0.393- 185 1.00
  30  0.216  0.238  0.319- 200 0.99
  31  0.158  0.330  0.279- 191 0.97
  32  0.342  0.156  0.331- 192 0.98
  33  0.223  0.046  0.323- 199 0.97
  34  0.511  0.827  0.547- 202 0.97
  35  0.404  0.250  0.655-  87 0.97
  36  0.243  0.094  0.599- 138 0.98
  37  0.315  0.487  0.442-  61 0.99
  38  0.409  0.439  0.406- 150 0.98
  39  0.398  0.793  0.389- 188 0.97
  40  0.244  0.655  0.294- 196 0.97
  41  0.312  0.418  0.369- 197 0.98
  42  0.405  0.584  0.339- 198 0.97
  43  0.139  0.488  0.352- 190 0.98
  44  0.593  0.698  0.352-  91 0.97
  45  0.469  0.861  0.444- 201 0.99
  46  0.109  0.334  0.613- 110 0.97
  47  0.072  0.666  0.645- 141 0.97
  48  0.251  0.356  0.671- 186 0.97
  49  0.244  0.816  0.669- 195 0.97
  50  0.524  0.423  0.766-   1 1.09
  51  0.546  0.519  0.750-   1 1.10
  52  0.419  0.490  0.800-   2 1.09
  53  0.359  0.566  0.712-   3 1.10
  54  0.481  0.608  0.790-   4 1.10
  55  0.425  0.648  0.753-   4 1.10
  56  0.414  0.628  0.818-   4 1.10
  57  0.320  0.435  0.700-   5 1.10
  58  0.345  0.410  0.760-   5 1.10
  59  0.288  0.475  0.753-   5 1.10
  60  0.369  0.648  0.439- 233 1.66 268 1.68
  61  0.347  0.504  0.420-  37 0.99 268 1.67
  62  0.861  0.566  0.697-  27 0.97 239 1.64
  63  0.348  0.961  0.533- 244 1.68 277 1.70
  64  0.033  0.932  0.529- 259 1.63 270 1.66
  65  0.636  0.079  0.489- 237 1.60 226 1.65
  66  0.069  0.052  0.395- 225 1.64 217 1.65
  67  0.452  0.130  0.421- 242 1.65 223 1.65
  68  0.806  0.214  0.483- 241 1.67 238 1.69
  69  0.973  0.181  0.599- 219 1.63 249 1.65
  70  0.275  0.299  0.449- 265 1.65 275 1.66
  71  0.556  0.775  0.442- 246 1.51 273 1.66
  72  0.391  0.973  0.621- 263 1.65 277 1.66
  73  0.178  0.350  0.405- 265 1.66 240 1.67
  74  0.866  0.684  0.637- 243 1.64 239 1.65
  75  0.866  0.967  0.467- 235 1.60 250 1.65
  76  0.301  0.761  0.458- 233 1.65 247 1.67
  77  0.422  0.261  0.380- 242 1.67 262 1.67
  78  0.811  0.466  0.520- 269 1.63 216 1.64
  79  0.983  0.072  0.521- 259 1.68 219 1.69
  80  0.507  0.467  0.629- 278 1.65 279 1.99
  81  0.035  0.920  0.429- 270 1.64 217 1.65
  82  0.963  0.303  0.351-   7 0.98 218 1.65
  83  0.070  0.336  0.376- 218 1.64 240 1.65
  84  0.208  0.729  0.395- 247 1.66 257 1.67
  85  0.039  0.419  0.499- 272 1.64 245 1.65
  86  0.236  0.287  0.587- 253 1.63 230 1.64
  87  0.395  0.199  0.646-  35 0.97 224 1.64
  88  0.453  0.565  0.577- 278 1.68 255 1.68
  89  0.910  0.749  0.557- 243 1.64 222 1.65
  90  0.869  0.108  0.442- 250 1.64 238 1.65
  91  0.573  0.667  0.376-  44 0.97 246 1.68
  92  0.142  0.159  0.376- 271 1.65 225 1.65
  93  0.350  0.766  0.607- 215 1.63 256 1.64
  94  0.911  0.845  0.483- 235 1.62 222 1.66
  95  0.061  0.537  0.442- 272 1.66 214 1.67
  96  0.708  0.555  0.420-  20 1.00 228 1.67
  97  0.075  0.817  0.483- 270 1.50 252 1.65
  98  0.700  0.828  0.433- 227 1.53 260 1.65
  99  0.730  0.049  0.543- 226 1.64 261 1.64
 100  0.915  0.298  0.630-  15 0.98 249 1.63
 101  0.735  0.852  0.613- 234 1.66 231 1.68
 102  0.625  0.527  0.486- 236 1.58 228 1.68
 103  0.557  0.630  0.467- 246 1.52 236 1.63
 104  0.426  0.248  0.556- 267 1.68 224 1.68
 105  0.978  0.728  0.477- 252 1.65 222 1.65
 106  0.654  0.595  0.633- 274 1.64 220 1.67
 107  0.396  0.747  0.515- 233 1.65 215 1.66
 108  0.603  0.518  0.386-  22 0.99 228 1.65
 109  0.720  0.631  0.557- 258 1.62 274 1.64
 110  0.134  0.365  0.594-  46 0.97 230 1.63
 111  0.066  0.549  0.542- 272 1.63 276 1.64
 112  0.819  0.885  0.537- 235 1.65 234 1.67
 113  0.828  0.355  0.452- 241 1.65 216 1.65
 114  0.527  0.299  0.533- 267 1.62 248 1.63
 115  0.737  0.499  0.596- 274 1.66 269 1.66
 116  0.557  0.172  0.395- 254 1.59 223 1.64
 117  0.806  0.256  0.383-   8 0.97 241 1.67
 118  0.237  0.953  0.508- 244 1.58 229 1.67
 119  0.692  0.776  0.542- 258 1.63 231 1.64
 120  0.924  0.950  0.553- 259 1.64 235 1.66
 121  0.526  0.318  0.399- 254 1.45 262 1.66
 122  0.466  0.992  0.546- 263 1.69 264 1.70
 123  0.838  0.095  0.540- 238 1.66 261 1.66
 124  0.538  0.116  0.486- 237 1.60 223 1.67
 125  0.350  0.187  0.440- 275 1.63 242 1.65
 126  0.012  0.962  0.335-   9 0.97 217 1.65
 127  0.451  0.588  0.671- 255 1.64 279 2.01
 128  0.655  0.925  0.379-  10 0.98 227 1.66
 129  0.076  0.686  0.436- 214 1.65 252 1.66
 130  0.452  0.406  0.552- 278 1.68 267 1.70
 131  0.719  0.700  0.380-  23 0.99 260 1.65
 132  0.451  0.706  0.600- 215 1.62 255 1.64
 133  0.753  0.709  0.476- 258 1.63 260 1.69
 134  0.779  0.121  0.621-   6 0.97 261 1.64
 135  0.993  0.308  0.448- 245 1.66 218 1.68
 136  0.535  0.507  0.532- 278 1.64 236 1.65
 137  0.817  0.499  0.423-  24 0.98 216 1.69
 138  0.235  0.146  0.605-  36 0.98 253 1.62
 139  0.204  0.831  0.471- 229 1.50 247 1.63
 140  0.240  0.559  0.522- 232 1.65 221 1.66
 141  0.061  0.626  0.624-  47 0.97 276 1.63
 142  0.046  0.602  0.354-  25 0.97 214 1.65
 143  0.800  0.978  0.606- 234 1.66 261 1.68
 144  0.538  0.028  0.405-  28 0.99 223 1.66
 145  0.607  0.313  0.605-  16 0.97 248 1.64
 146  0.862  0.004  0.369-  11 0.97 250 1.66
 147  0.095  0.149  0.467- 251 1.61 225 1.65
 148  0.171  0.202  0.530- 251 1.61 253 1.63
 149  0.641  0.704  0.455- 246 1.65 260 1.66
 150  0.437  0.410  0.386-  38 0.98 262 1.66
 151  0.573  0.059  0.571- 264 1.62 237 1.65
 152  0.151  0.593  0.389- 257 1.68 214 1.68
 153  0.268  0.602  0.392- 268 1.65 257 1.67
 154  0.440  0.322  0.470- 267 1.65 262 1.69
 155  0.238  0.159  0.430- 271 1.65 275 1.67
 156  0.073  0.150  0.563- 251 1.64 219 1.64
 157  0.845  0.544  0.600- 239 1.66 269 1.66
 158  0.621  0.280  0.411- 266 1.65 254 1.66
 159  0.603  0.892  0.467- 273 1.29 227 1.67
 160  0.031  0.195  0.389- 218 1.66 225 1.66
 161  0.608  0.196  0.547- 237 1.62 248 1.64
 162  0.133  0.938  0.479- 270 1.65 229 1.66
 163  0.079  0.279  0.511- 245 1.63 251 1.64
 164  0.370  0.107  0.573- 277 1.63 224 1.69
 165  0.067  0.697  0.536- 252 1.63 276 1.63
 166  0.666  0.415  0.430- 228 1.65 266 1.65
 167  0.799  0.730  0.564- 258 1.61 243 1.63
 168  0.704  0.957  0.470- 226 1.65 227 1.66
 169  0.598  0.634  0.553- 236 1.62 220 1.63
 170  0.723  0.294  0.452- 241 1.63 266 1.64
 171  0.978  0.314  0.548- 245 1.64 249 1.67
 172  0.159  0.630  0.571- 232 1.63 276 1.65
 173  0.633  0.327  0.508- 248 1.63 266 1.65
 174  0.819  0.397  0.605-  21 0.97 269 1.66
 175  0.959  0.027  0.417- 250 1.64 217 1.65
 176  0.282  0.196  0.519- 275 1.63 253 1.65
 177  0.249  0.443  0.461- 221 1.66 265 1.71
 178  0.272  0.850  0.569- 244 1.64 256 1.65
 179  0.204  0.686  0.487- 232 1.63 247 1.66
 180  0.147  0.476  0.493- 221 1.63 272 1.65
 181  0.226  0.426  0.558- 221 1.62 230 1.64
 182  0.911  0.453  0.474-  19 0.98 216 1.65
 183  0.870  0.705  0.464-  26 0.99 222 1.65
 184  0.738  0.093  0.445-  12 0.98 226 1.66
 185  0.222  0.930  0.408-  29 1.00 229 1.64
 186  0.225  0.390  0.655-  48 0.97 230 1.65
 187  0.630  0.883  0.593-  17 0.99 231 1.62
 188  0.410  0.789  0.423-  39 0.97 233 1.68
 189  0.918  0.196  0.508-  13 0.97 238 1.65
 190  0.133  0.444  0.332-  43 0.98 240 1.65
 191  0.155  0.304  0.311-  31 0.97 240 1.69
 192  0.373  0.131  0.348-  32 0.98 242 1.66
 193  0.030  0.296  0.636-  18 0.97 249 1.67
 194  0.573  0.257  0.320-  14 0.97 254 1.66
 195  0.245  0.770  0.650-  49 0.97 256 1.64
 196  0.207  0.648  0.310-  40 0.97 257 1.65
 197  0.275  0.392  0.367-  41 0.98 265 1.66
 198  0.365  0.598  0.342-  42 0.97 268 1.67
 199  0.226  0.056  0.358-  33 0.97 271 1.69
 200  0.241  0.196  0.329-  30 0.99 271 1.66
 201  0.501  0.892  0.455-  45 0.99 273 1.60
 202  0.550  0.828  0.534-  34 0.97 273 1.67
 203  0.544  0.645  0.634- 220 1.65 255 1.68
 204  0.478  0.123  0.596- 264 1.65 224 1.66
 205  0.263  0.694  0.569- 256 1.65 232 1.65
 206  0.442  0.848  0.581- 263 1.65 215 1.69
 207  0.765  0.617  0.649- 274 1.65 239 1.66
 208  0.845  0.832  0.623- 243 1.66 234 1.68
 209  0.638  0.740  0.621- 220 1.67 231 1.71
 210  0.008  0.033  0.603- 259 1.69 219 1.69
 211  0.283  0.002  0.596- 277 1.70 244 1.70
 212  0.503  0.973  0.628- 263 1.69 264 1.70
 213  0.427  0.398  0.690- 279 1.73
 214  0.083  0.606  0.406- 142 1.65 129 1.65  95 1.67 152 1.68 272 3.13
 215  0.409  0.766  0.575- 132 1.62  93 1.63 107 1.66 206 1.69 256 3.06
 216  0.842  0.441  0.468-  78 1.64 113 1.65 182 1.65 137 1.69
 217  0.017  0.990  0.394-  66 1.65 175 1.65  81 1.65 126 1.65 270 3.11 225 3.13
 218  0.015  0.284  0.391-  83 1.64  82 1.65 160 1.66 135 1.68 245 3.11 225 3.11
 219  0.009  0.115  0.573-  69 1.63 156 1.64  79 1.69 210 1.69 259 2.39 251 3.04 249 3.08
 220  0.608  0.657  0.611- 169 1.63 203 1.65 106 1.67 209 1.67 274 2.88 236 3.14
 221  0.214  0.476  0.510- 181 1.62 180 1.63 140 1.66 177 1.66 232 3.09 265 3.14
 222  0.915  0.756  0.496- 105 1.65 183 1.65  89 1.65  94 1.66 235 2.99 243 3.03
 223  0.521  0.110  0.426- 116 1.64  67 1.65 144 1.66 124 1.67 254 3.08 237 3.12
 224  0.417  0.172  0.591-  87 1.64 204 1.66 104 1.68 164 1.69
 225  0.083  0.139  0.407-  66 1.64 147 1.65  92 1.65 160 1.66 218 3.11 217 3.13 271 3.14
 226  0.702  0.045  0.487-  99 1.64 168 1.65  65 1.65 184 1.66 237 3.09 227 3.10 261 3.15
 227  0.665  0.898  0.437-  98 1.53 168 1.66 128 1.66 159 1.67 273 2.83 260 3.06 226 3.10
 228  0.650  0.504  0.430- 108 1.65 166 1.65  96 1.67 102 1.68 236 3.07
 229  0.198  0.912  0.464- 139 1.50 185 1.64 162 1.66 118 1.67 247 3.01 270 3.07 244 3.07
 230  0.204  0.365  0.599- 110 1.63  86 1.64 181 1.64 186 1.65 253 3.13
 231  0.673  0.813  0.595- 187 1.62 119 1.64 101 1.68 209 1.71 258 2.91
 232  0.217  0.642  0.538- 179 1.63 172 1.63 205 1.65 140 1.65 247 3.09 221 3.09 276 3.12
 233  0.369  0.735  0.459-  76 1.65 107 1.65  60 1.66 188 1.68
 234  0.797  0.888  0.596- 143 1.66 101 1.66 112 1.67 208 1.68 243 2.86 235 3.00
 235  0.880  0.912  0.512-  75 1.60  94 1.62 112 1.65 120 1.66 222 2.99 234 3.00 259 3.05 250 3.13

 236  0.576  0.575  0.512- 102 1.58 169 1.62 103 1.63 136 1.65 246 3.01 228 3.07 278 3.14 220 3.14

 237  0.590  0.115  0.525-  65 1.60 124 1.60 161 1.62 151 1.65 264 2.86 226 3.09 248 3.12 223 3.12

 238  0.858  0.152  0.495- 189 1.65  90 1.65 123 1.66  68 1.69 250 3.07 241 3.15
 239  0.835  0.604  0.646-  62 1.64  74 1.65 157 1.66 207 1.66 274 2.93 243 3.00 269 3.01
 240  0.134  0.360  0.357- 190 1.65  83 1.65  73 1.67 191 1.69 265 3.11
 241  0.791  0.280  0.442- 170 1.63 113 1.65 117 1.67  68 1.67 238 3.15
 242  0.399  0.177  0.396-  67 1.65 125 1.65 192 1.66  77 1.67 262 3.07
 243  0.856  0.750  0.596- 167 1.63  74 1.64  89 1.64 208 1.66 234 2.86 239 3.00 222 3.03
 244  0.282  0.935  0.551- 118 1.58 178 1.64  63 1.68 211 1.70 277 2.39 229 3.07
 245  0.023  0.330  0.502- 163 1.63 171 1.64  85 1.65 135 1.66 218 3.11 249 3.12 251 3.13
 246  0.575  0.695  0.436-  71 1.51 103 1.52 149 1.65  91 1.68 236 3.01 273 3.06 260 3.10
 247  0.230  0.753  0.452- 139 1.63 179 1.66  84 1.66  76 1.67 257 2.97 229 3.01 232 3.09
 248  0.594  0.284  0.548- 173 1.63 114 1.63 161 1.64 145 1.64 237 3.12
 249  0.973  0.272  0.603- 100 1.63  69 1.65 171 1.67 193 1.67 219 3.08 245 3.12
 250  0.889  0.025  0.424-  90 1.64 175 1.64  75 1.65 146 1.66 238 3.07 235 3.13
 251  0.104  0.195  0.518- 148 1.61 147 1.61 156 1.64 163 1.64 219 3.04 245 3.13
 252  0.048  0.733  0.483- 165 1.63 105 1.65  97 1.65 129 1.66 270 3.05 276 3.15
 253  0.231  0.206  0.561- 138 1.62 148 1.63  86 1.63 176 1.65 275 3.02 230 3.13
 254  0.561  0.258  0.381- 121 1.45 116 1.59 158 1.66 194 1.66 262 2.87 223 3.08
 255  0.475  0.626  0.620- 127 1.64 132 1.64 203 1.68  88 1.68 278 2.92 279 3.23
 256  0.281  0.770  0.598-  93 1.64 195 1.64 205 1.65 178 1.65 215 3.06
 257  0.209  0.643  0.372- 196 1.65 153 1.67  84 1.67 152 1.68 247 2.97
 258  0.740  0.711  0.536- 167 1.61 109 1.62 133 1.63 119 1.63 231 2.91 260 2.91 274 3.06
 259  0.987  0.990  0.550-  64 1.63 120 1.64  79 1.68 210 1.69 219 2.39 235 3.05
 260  0.703  0.737  0.434-  98 1.65 131 1.65 149 1.66 133 1.69 258 2.91 227 3.06 246 3.10
 261  0.788  0.059  0.577-  99 1.64 134 1.64 123 1.66 143 1.68 226 3.15
 262  0.456  0.328  0.409- 150 1.66 121 1.66  77 1.67 154 1.69 254 2.87 242 3.07
 263  0.448  0.937  0.595- 206 1.65  72 1.65 122 1.69 212 1.69 264 2.36 277 2.74
 264  0.507  0.042  0.586- 151 1.62 204 1.65 122 1.70 212 1.70 263 2.36 237 2.86
 265  0.244  0.370  0.421-  70 1.65  73 1.66 197 1.66 177 1.71 240 3.11 221 3.14
 266  0.659  0.330  0.450- 170 1.64 158 1.65 166 1.65 173 1.65
 267  0.460  0.319  0.529- 114 1.62 154 1.65 104 1.68 130 1.70
 268  0.337  0.590  0.399- 153 1.65 198 1.67  61 1.67  60 1.68
 269  0.803  0.477  0.580-  78 1.63 174 1.66 157 1.66 115 1.66 274 2.91 239 3.01
 270  0.069  0.899  0.481-  97 1.50  81 1.64 162 1.65  64 1.66 252 3.05 229 3.07 217 3.11
 271  0.212  0.144  0.374-  92 1.65 155 1.65 200 1.66 199 1.69 275 3.12 225 3.14
 272  0.078  0.494  0.495- 111 1.63  85 1.64 180 1.65  95 1.66 276 3.09 214 3.13
 273  0.558  0.852  0.475- 159 1.29 201 1.60  71 1.66 202 1.67 227 2.83 246 3.06
 274  0.718  0.585  0.610- 106 1.64 109 1.64 207 1.65 115 1.66 220 2.88 269 2.91 239 2.93 258 3.06

 275  0.287  0.210  0.459- 176 1.63 125 1.63  70 1.66 155 1.67 253 3.02 271 3.12
 276  0.088  0.625  0.568- 165 1.63 141 1.63 111 1.64 172 1.65 272 3.09 232 3.12 252 3.15
 277  0.352  0.020  0.581- 164 1.63  72 1.66  63 1.70 211 1.70 244 2.39 263 2.74
 278  0.485  0.483  0.571- 136 1.64  80 1.65 130 1.68  88 1.68 255 2.92 236 3.14 279 3.25
 279  0.462  0.482  0.690- 213 1.73   1 1.92  80 1.99 127 2.01   3 2.57   2 2.66 255 3.23 278 3.25


  LATTYP: Found a simple orthorhombic cell.
 ALAT       =    18.1212369514
 B/A-ratio  =     1.2919258579
 C/A-ratio  =     1.4835282260
  
  Lattice vectors:
  
 A1 = (   0.0000000000, -18.1212369514,   0.0000000000)
 A2 = ( -23.4112945954,   0.0000000000,   0.0000000000)
 A3 = (   0.0000000000,   0.0000000000, -26.8833665073)


Analysis of symmetry for initial positions (statically):
=====================================================================
 Subroutine PRICEL returns:
 Original cell was already a primitive cell.
 

 Routine SETGRP: Setting up the symmetry group for a 
 simple orthorhombic supercell.


 Subroutine GETGRP returns: Found  1 space group operations
 (whereof  1 operations were pure point group operations)
 out of a pool of  8 trial point group operations.


The static configuration has the point symmetry C_1 .


Analysis of symmetry for dynamics (positions and initial velocities):
=====================================================================
 Subroutine PRICEL returns:
 Original cell was already a primitive cell.
 

 Routine SETGRP: Setting up the symmetry group for a 
 simple orthorhombic supercell.


 Subroutine GETGRP returns: Found  1 space group operations
 (whereof  1 operations were pure point group operations)
 out of a pool of  8 trial point group operations.


The dynamic configuration has the point symmetry C_1 .


Analysis of constrained symmetry for selective dynamics:
=====================================================================
 Subroutine PRICEL returns:
 Original cell was already a primitive cell.
 

 Routine SETGRP: Setting up the symmetry group for a 
 simple orthorhombic supercell.


 Subroutine GETGRP returns: Found  1 space group operations
 (whereof  1 operations were pure point group operations)
 out of a pool of  8 trial point group operations.


The constrained configuration has the point symmetry C_1 .


 Subroutine INISYM returns: Found  1 space group operations
 (whereof  1 operations are pure point group operations),
 and found     1 'primitive' translations



 KPOINTS: KPOINTS created by Atomic Simulation Env

Automatic generation of k-mesh.
Space group operators:
 irot       det(A)        alpha          n_x          n_y          n_z        tau_x        tau_y        tau_z
    1     1.000000     0.000000     1.000000     0.000000     0.000000     0.000000     0.000000     0.000000
 
 Subroutine IBZKPT returns following result:
 ===========================================
 
 Found      5 irreducible k-points:
 
 Following reciprocal coordinates:
            Coordinates               Weight
  0.000000  0.000000  0.000000      1.000000
  0.333333  0.000000  0.000000      2.000000
  0.000000  0.333333  0.000000      2.000000
  0.333333  0.333333  0.000000      2.000000
 -0.333333  0.333333  0.000000      2.000000
 
 Following cartesian coordinates:
            Coordinates               Weight
  0.000000  0.000000  0.000000      1.000000
  0.014238  0.000000  0.000000      2.000000
  0.000000  0.018395  0.000000      2.000000
  0.014238  0.018395  0.000000      2.000000
 -0.014238  0.018395  0.000000      2.000000
 


--------------------------------------------------------------------------------------------------------




 Dimension of arrays:
   k-points           NKPTS =      5   k-points in BZ     NKDIM =      5   number of bands    NBANDS=    776
   number of dos      NEDOS =    301   number of ions     NIONS =    279
   non local maximal  LDIM  =      6   non local SUM 2l+1 LMDIM =     18
   total plane-waves  NPLWV = ******
   max r-space proj   IRMAX =   2748   max aug-charges    IRDMAX=   9808
   dimension x,y,z NGX =   128 NGY =  100 NGZ =  150
   dimension x,y,z NGXF=   256 NGYF=  200 NGZF=  300
   support grid    NGXF=   256 NGYF=  200 NGZF=  300
   ions per type =               5  54 154  65   1
   NGX,Y,Z   is equivalent  to a cutoff of   9.09,  9.17,  9.28 a.u.
   NGXF,Y,Z  is equivalent  to a cutoff of  18.18, 18.35, 18.55 a.u.

 SYSTEM =  unknown system                          
 POSCAR =  C  H  O  Si W                           

 Startparameter for this run:
   NWRITE =      2    write-flag & timer
   PREC   = normal    normal or accurate (medium, high low for compatibility)
   ISTART =      0    job   : 0-new  1-cont  2-samecut
   ICHARG =      2    charge: 1-file 2-atom 10-const
   ISPIN  =      1    spin polarized calculation?
   LNONCOLLINEAR =      F non collinear calculations
   LSORBIT =      F    spin-orbit coupling
   INIWAV =      1    electr: 0-lowe 1-rand  2-diag
   LASPH  =      T    aspherical Exc in radial PAW
   METAGGA=      F    non-selfconsistent MetaGGA calc.

 Electronic Relaxation 1
   ENCUT  =  500.0 eV  36.75 Ry    6.06 a.u.  42.68 33.04 49.01*2*pi/ulx,y,z
   ENINI  =  500.0     initial cutoff
   ENAUG  =  644.9 eV  augmentation charge cutoff
   NELM   =     60;   NELMIN=  2; NELMDL=  0     # of ELM steps 
   EDIFF  = 0.1E-03   stopping-criterion for ELM
   LREAL  =      T    real-space projection
   NLSPLINE    = F    spline interpolate recip. space projectors
   LCOMPAT=      F    compatible to vasp.4.4
   GGA_COMPAT  = T    GGA compatible to vasp.4.4-vasp.4.6
   LMAXPAW     = -100 max onsite density
   LMAXMIX     =    2 max onsite mixed and CHGCAR
   VOSKOWN=      0    Vosko Wilk Nusair interpolation
   ROPT   =   -0.00050  -0.00050  -0.00050  -0.00050
   ROPT   =   -0.00050
 Ionic relaxation
   EDIFFG = -.5E-01   stopping-criterion for IOM
   NSW    =    500    number of steps for IOM
   NBLOCK =      1;   KBLOCK =    500    inner block; outer block 
   IBRION =      2    ionic relax: 0-MD 1-quasi-New 2-CG
   NFREE  =      1    steps in history (QN), initial steepest desc. (CG)
   ISIF   =      0    stress and relaxation
   IWAVPR =     11    prediction:  0-non 1-charg 2-wave 3-comb
   ISYM   =      2    0-nonsym 1-usesym 2-fastsym
   LCORR  =      T    Harris-Foulkes like correction to forces

   POTIM  = 0.5000    time-step for ionic-motion
   TEIN   =    0.0    initial temperature
   TEBEG  =    0.0;   TEEND  =   0.0 temperature during run
   SMASS  =  -3.00    Nose mass-parameter (am)
   estimated Nose-frequenzy (Omega)   =  0.10E-29 period in steps =****** mass=  -0.125E-25a.u.
   SCALEE = 1.0000    scale energy and forces
   NPACO  =    256;   APACO  = 16.0  distance and # of slots for P.C.
   PSTRESS=    0.0 pullay stress

  Mass of Ions in am
   POMASS =  12.01  1.00 16.00 28.09183.85
  Ionic Valenz
   ZVAL   =   4.00  1.00  6.00  4.00  6.00
  Atomic Wigner-Seitz radii
   RWIGS  =  -1.00 -1.00 -1.00 -1.00 -1.00
  virtual crystal weights 
   VCA    =   1.00  1.00  1.00  1.00  1.00
   NELECT =    1264.0000    total number of electrons
   NUPDOWN=      -1.0000    fix difference up-down

 DOS related values:
   EMIN   =  10.00;   EMAX   =-10.00  energy-range for DOS
   EFERMI =   0.00
   ISMEAR =     0;   SIGMA  =   0.20  broadening in eV -4-tet -1-fermi 0-gaus

 Electronic relaxation 2 (details)
   IALGO  =     68    algorithm
   LDIAG  =      T    sub-space diagonalisation (order eigenvalues)
   LSUBROT=      F    optimize rotation matrix (better conditioning)
   TURBO    =      0    0=normal 1=particle mesh
   IRESTART =      0    0=no restart 2=restart with 2 vectors
   NREBOOT  =      0    no. of reboots
   NMIN     =      0    reboot dimension
   EREF     =   0.00    reference energy to select bands
   IMIX   =      4    mixing-type and parameters
     AMIX     =   0.40;   BMIX     =  1.00
     AMIX_MAG =   1.60;   BMIX_MAG =  1.00
     AMIN     =   0.10
     WC   =   100.;   INIMIX=   1;  MIXPRE=   1;  MAXMIX= -45

 Intra band minimization:
   WEIMIN = 0.0010     energy-eigenvalue tresh-hold
   EBREAK =  0.32E-07  absolut break condition
   DEPER  =   0.30     relativ break condition  

   TIME   =   0.40     timestep for ELM

  volume/ion in A,a.u.               =      40.88       275.86
  Fermi-wavevector in a.u.,A,eV,Ry     =   0.786366  1.486017  8.413461  0.618372
  Thomas-Fermi vector in A             =   1.890890

 Write flags
   LWAVE        =      F    write WAVECAR
   LDOWNSAMPLE  =      F    k-point downsampling of WAVECAR
   LCHARG       =      F    write CHGCAR
   LVTOT        =      F    write LOCPOT, total local potential
   LVHAR        =      F    write LOCPOT, Hartree potential only
   LELF         =      F    write electronic localiz. function (ELF)
   LORBIT       =      0    0 simple, 1 ext, 2 COOP (PROOUT), +10 PAW based schemes


 Dipole corrections
   LMONO  =      F    monopole corrections only (constant potential shift)
   LDIPOL =      T    correct potential (dipole corrections)
   IDIPOL =      3    1-x, 2-y, 3-z, 4-all directions 
   EPSILON=  1.0000000 bulk dielectric constant

 Exchange correlation treatment:
   GGA     =    RP    GGA type
   LEXCH   =     9    internal setting for exchange type
   VOSKOWN=      0    Vosko Wilk Nusair interpolation
   LHFCALC =     F    Hartree Fock is set to
   LHFONE  =     F    Hartree Fock one center treatment
   AEXX    =    0.0000 exact exchange contribution

 Linear response parameters
   LEPSILON=     F    determine dielectric tensor
   LRPA    =     F    only Hartree local field effects (RPA)
   LNABLA  =     F    use nabla operator in PAW spheres
   LVEL    =     F    velocity operator in full k-point grid
   LINTERFAST=   F  fast interpolation
   KINTER  =     0    interpolate to denser k-point grid
   CSHIFT  =0.1000    complex shift for real part using Kramers Kronig
   OMEGAMAX=  -1.0    maximum frequency
   DEG_THRESHOLD= 0.2000000E-02 threshold for treating states as degnerate
   RTIME   =   -0.100 relaxation time in fs
  (WPLASMAI=    0.000 imaginary part of plasma frequency in eV, 0.658/RTIME)
   DFIELD  = 0.0000000 0.0000000 0.0000000 field for delta impulse in time

 Orbital magnetization related:
   ORBITALMAG=     F  switch on orbital magnetization
   LCHIMAG   =     F  perturbation theory with respect to B field
   DQ        =  0.001000  dq finite difference perturbation B field
   LLRAUG    =     F  two centre corrections for induced B field



--------------------------------------------------------------------------------------------------------


 conjugate gradient relaxation of ions
   using selective dynamics as specified on POSCAR
 charge density and potential will be updated during run
 non-spin polarized calculation
 RMM-DIIS sequential band-by-band and
  variant of blocked Davidson during initial phase
 perform sub-space diagonalisation
    before iterative eigenvector-optimisation
 modified Broyden-mixing scheme, WC =      100.0
 initial mixing is a Kerker type mixing with AMIX =  0.4000 and BMIX =      1.0000
 Hartree-type preconditioning will be used
 using additional bands          144
 real space projection scheme for non local part
 use partial core corrections
 calculate Harris-corrections to forces   (improved forces if not selfconsistent)
 use gradient corrections 
 use of overlap-Matrix (Vanderbilt PP)
 Gauss-broadening in eV      SIGMA  =   0.20


--------------------------------------------------------------------------------------------------------


  energy-cutoff  :      500.00
  volume of cell :    11405.04
      direct lattice vectors                 reciprocal lattice vectors
    23.411294595  0.000000000  0.000000000     0.042714426  0.000000000  0.000000000
     0.000000000 18.121236951  0.000000000     0.000000000  0.055183871  0.000000000
     0.000000000  0.000000000 26.883366507     0.000000000  0.000000000  0.037197722

  length of vectors
    23.411294595 18.121236951 26.883366507     0.042714426  0.055183871  0.037197722



 k-points in units of 2pi/SCALE and weight: KPOINTS created by Atomic Simulation Env
   0.00000000  0.00000000  0.00000000       0.111
   0.01423814  0.00000000  0.00000000       0.222
   0.00000000  0.01839462  0.00000000       0.222
   0.01423814  0.01839462  0.00000000       0.222
  -0.01423814  0.01839462  0.00000000       0.222

 k-points in reciprocal lattice and weights: KPOINTS created by Atomic Simulation Env
   0.00000000  0.00000000  0.00000000       0.111
   0.33333333  0.00000000  0.00000000       0.222
   0.00000000  0.33333333  0.00000000       0.222
   0.33333333  0.33333333  0.00000000       0.222
  -0.33333333  0.33333333  0.00000000       0.222

 position of ions in fractional coordinates (direct lattice) 
   0.51738966  0.47196567  0.74241506
   0.41117938  0.53289460  0.77196084
   0.36998524  0.51983796  0.73620531
   0.43469058  0.60868686  0.78351106
   0.32877496  0.45575872  0.73734968
   0.76062024  0.10270964  0.65112469
   0.92642768  0.27866896  0.35633493
   0.79333970  0.20727890  0.37345652
   0.97453911  0.94360860  0.32530279
   0.62573266  0.96347285  0.37523120
   0.82053840  0.99500666  0.36899263
   0.74999307  0.14117876  0.45803819
   0.91602204  0.24943972  0.50637208
   0.58349286  0.30426355  0.30592717
   0.88870404  0.33360472  0.61496697
   0.59118141  0.36042512  0.61447506
   0.59318342  0.87164926  0.57821606
   0.02081836  0.33111340  0.66233399
   0.93527051  0.41951423  0.45410146
   0.74613838  0.53031199  0.42248819
   0.79576198  0.38110928  0.63329078
   0.59110202  0.56868283  0.37803474
   0.71843379  0.64593279  0.38346059
   0.84115291  0.54242660  0.41959617
   0.00476455  0.60379815  0.35777830
   0.82835870  0.71235667  0.46794226
   0.87523301  0.59940410  0.72184378
   0.51999031  0.98556476  0.42170307
   0.22309457  0.98015484  0.39320502
   0.21637369  0.23785146  0.31923033
   0.15750105  0.32980623  0.27898292
   0.34154688  0.15558571  0.33077276
   0.22271586  0.04575893  0.32273843
   0.51103938  0.82653187  0.54670159
   0.40370116  0.25012149  0.65451728
   0.24267172  0.09362195  0.59910446
   0.31538097  0.48713646  0.44243467
   0.40895618  0.43873486  0.40569060
   0.39849950  0.79311361  0.38878680
   0.24420236  0.65543008  0.29432688
   0.31174138  0.41847571  0.36925764
   0.40547429  0.58427965  0.33881989
   0.13935762  0.48797365  0.35192946
   0.59326935  0.69798713  0.35239799
   0.46900683  0.86142747  0.44382838
   0.10890148  0.33374746  0.61314065
   0.07169372  0.66620735  0.64514677
   0.25092322  0.35605647  0.67094282
   0.24411390  0.81563398  0.66857512
   0.52433075  0.42341799  0.76583293
   0.54611892  0.51878391  0.74989623
   0.41865417  0.48991349  0.79976715
   0.35861564  0.56593268  0.71179092
   0.48092018  0.60818591  0.79027224
   0.42519788  0.64770037  0.75345167
   0.41380657  0.62824545  0.81792016
   0.31961132  0.43530705  0.69981340
   0.34500256  0.41009925  0.76017203
   0.28801381  0.47534422  0.75327346
   0.36894173  0.64835510  0.43900002
   0.34681565  0.50403387  0.42038813
   0.86067782  0.56620462  0.69663298
   0.34769042  0.96072361  0.53251358
   0.03342240  0.93221784  0.52863618
   0.63635548  0.07886855  0.48937667
   0.06864615  0.05226542  0.39511073
   0.45189954  0.12956232  0.42059728
   0.80588415  0.21365018  0.48316661
   0.97321279  0.18105986  0.59899442
   0.27476529  0.29917287  0.44851223
   0.55635417  0.77509129  0.44175101
   0.39105874  0.97326076  0.62135264
   0.17751724  0.34996845  0.40527312
   0.86631296  0.68421990  0.63732821
   0.86569601  0.96717693  0.46703846
   0.30104714  0.76093683  0.45792526
   0.42161095  0.26125222  0.37959630
   0.81079474  0.46584430  0.51994657
   0.98349779  0.07249352  0.52137035
   0.50732168  0.46660568  0.62857492
   0.03453641  0.91994776  0.42940526
   0.96303654  0.30319531  0.35125762
   0.06962669  0.33610577  0.37637178
   0.20829566  0.72864429  0.39536010
   0.03890126  0.41910192  0.49910875
   0.23585356  0.28654853  0.58712250
   0.39543008  0.19934156  0.64550300
   0.45344343  0.56538942  0.57652501
   0.90975976  0.74915060  0.55747880
   0.86912727  0.10804334  0.44227833
   0.57257679  0.66733185  0.37613173
   0.14242656  0.15912550  0.37597224
   0.35036879  0.76565725  0.60693641
   0.91099605  0.84504757  0.48317962
   0.06133801  0.53687171  0.44225348
   0.70833903  0.55516655  0.41995768
   0.07548726  0.81680680  0.48299416
   0.70046477  0.82755571  0.43263529
   0.73018015  0.04917247  0.54295697
   0.91488445  0.29829873  0.63025037
   0.73466434  0.85221189  0.61286253
   0.62512195  0.52739400  0.48637871
   0.55657330  0.62970304  0.46724942
   0.42557595  0.24837536  0.55629725
   0.97829009  0.72824363  0.47679564
   0.65375495  0.59459033  0.63345748
   0.39639459  0.74711616  0.51529296
   0.60269007  0.51766545  0.38567099
   0.71975081  0.63076641  0.55689493
   0.13443434  0.36536956  0.59401276
   0.06630660  0.54870417  0.54186087
   0.81881544  0.88451456  0.53657369
   0.82821553  0.35538514  0.45190334
   0.52733064  0.29891211  0.53268536
   0.73651373  0.49932498  0.59560902
   0.55743394  0.17243111  0.39490854
   0.80596408  0.25641257  0.38329286
   0.23744622  0.95325075  0.50791956
   0.69237570  0.77558168  0.54167974
   0.92378873  0.94963331  0.55296200
   0.52573722  0.31778112  0.39855594
   0.46599564  0.99198447  0.54644195
   0.83771090  0.09494617  0.53982589
   0.53790325  0.11641749  0.48623709
   0.35019344  0.18660873  0.43963639
   0.01176032  0.96241390  0.33524376
   0.45067544  0.58803068  0.67122449
   0.65496522  0.92539750  0.37922825
   0.07629334  0.68602626  0.43588102
   0.45212077  0.40561184  0.55180647
   0.71921944  0.70042085  0.37958300
   0.45118988  0.70560638  0.60000684
   0.75255106  0.70932458  0.47629548
   0.77853067  0.12058710  0.62094562
   0.99327462  0.30801347  0.44840298
   0.53517327  0.50716586  0.53191717
   0.81677759  0.49906173  0.42344221
   0.23529122  0.14581024  0.60548892
   0.20353331  0.83070132  0.47053363
   0.24021978  0.55925238  0.52227768
   0.06123813  0.62553651  0.62362025
   0.04607407  0.60234669  0.35417863
   0.80038105  0.97838544  0.60557053
   0.53799091  0.02769749  0.40450275
   0.60653595  0.31262003  0.60507992
   0.86154611  0.00408085  0.36920633
   0.09491131  0.14902284  0.46708233
   0.17135330  0.20195448  0.52988767
   0.64098865  0.70443872  0.45481558
   0.43678778  0.40976848  0.38641325
   0.57305682  0.05867978  0.57087059
   0.15143775  0.59340802  0.38895836
   0.26773979  0.60233753  0.39230630
   0.44025846  0.32219818  0.47032443
   0.23800967  0.15851113  0.42990119
   0.07270186  0.15012995  0.56269572
   0.84472031  0.54412703  0.59986490
   0.62117943  0.27993988  0.41090545
   0.60266699  0.89152667  0.46722346
   0.03138539  0.19528983  0.38899188
   0.60760515  0.19552854  0.54748014
   0.13279973  0.93835464  0.47948708
   0.07946225  0.27919342  0.51061545
   0.36984118  0.10650783  0.57325838
   0.06706157  0.69707317  0.53561848
   0.66648838  0.41538488  0.43001156
   0.79928277  0.72954417  0.56403600
   0.70383856  0.95720843  0.47018456
   0.59780247  0.63436952  0.55305302
   0.72284030  0.29368465  0.45166811
   0.97790263  0.31388940  0.54750146
   0.15855530  0.62974467  0.57065633
   0.63333384  0.32678308  0.50780070
   0.81923607  0.39653948  0.60540331
   0.95857820  0.02724304  0.41695300
   0.28205922  0.19581770  0.51878076
   0.24925755  0.44303289  0.46105570
   0.27192179  0.85004554  0.56909048
   0.20366815  0.68557317  0.48688872
   0.14712345  0.47606988  0.49254493
   0.22568751  0.42592893  0.55836088
   0.91141698  0.45274460  0.47371881
   0.86978818  0.70456011  0.46415352
   0.73812021  0.09283462  0.44522965
   0.22218344  0.92978119  0.40794682
   0.22459623  0.39036499  0.65545574
   0.63044718  0.88341406  0.59335547
   0.41022327  0.78906239  0.42343739
   0.91777135  0.19603829  0.50824515
   0.13254706  0.44353611  0.33227266
   0.15514768  0.30352326  0.31056042
   0.37300515  0.13090704  0.34795342
   0.02991572  0.29566595  0.63645391
   0.57268926  0.25686819  0.32009968
   0.24479721  0.76988708  0.64987791
   0.20737430  0.64840505  0.31036906
   0.27537441  0.39219130  0.36737583
   0.36535081  0.59758663  0.34222079
   0.22638085  0.05618082  0.35811888
   0.24120333  0.19607823  0.32934297
   0.50127293  0.89230162  0.45484168
   0.54999779  0.82790600  0.53434058
   0.54357971  0.64469914  0.63415643
   0.47754747  0.12347411  0.59574279
   0.26275281  0.69424215  0.56850038
   0.44169774  0.84835614  0.58134796
   0.76521783  0.61742532  0.64938071
   0.84459213  0.83170308  0.62288087
   0.63814933  0.73960450  0.62098627
   0.00828302  0.03296823  0.60307572
   0.28261541  0.00150105  0.59569463
   0.50261708  0.97273591  0.62829999
   0.42695025  0.39783497  0.69015370
   0.08322528  0.60642030  0.40641308
   0.40905978  0.76600574  0.57463783
   0.84176382  0.44145312  0.46783897
   0.01708949  0.99048204  0.39361135
   0.01470021  0.28419027  0.39108141
   0.00932477  0.11469270  0.57263873
   0.60807445  0.65705487  0.61113394
   0.21398148  0.47632226  0.50976047
   0.91506213  0.75556094  0.49625454
   0.52057854  0.11045563  0.42598659
   0.41745547  0.17150693  0.59067363
   0.08345253  0.13917208  0.40698087
   0.70189793  0.04484625  0.48732303
   0.66505935  0.89803746  0.43747644
   0.65009874  0.50402706  0.43015089
   0.19846065  0.91248223  0.46399069
   0.20393490  0.36486861  0.59924958
   0.67288265  0.81296195  0.59474128
   0.21679981  0.64168083  0.53844275
   0.36878912  0.73512773  0.45920930
   0.79699019  0.88812461  0.59553246
   0.87970398  0.91218905  0.51198275
   0.57647572  0.57456605  0.51205855
   0.58975651  0.11549922  0.52524208
   0.85812234  0.15211323  0.49517595
   0.83513369  0.60378260  0.64584040
   0.13373852  0.36031890  0.35687228
   0.79065529  0.27993925  0.44187265
   0.39917610  0.17749484  0.39600320
   0.85586562  0.75009500  0.59647669
   0.28198971  0.93540549  0.55063483
   0.02307473  0.33044751  0.50224551
   0.57455938  0.69549008  0.43556436
   0.23024095  0.75260050  0.45196954
   0.59367624  0.28411020  0.54828794
   0.97317622  0.27188500  0.60251144
   0.88890636  0.02540900  0.42420019
   0.10440219  0.19529213  0.51768482
   0.04814566  0.73303709  0.48263019
   0.23117345  0.20569956  0.56068985
   0.56140781  0.25778527  0.38122611
   0.47541158  0.62581158  0.62006120
   0.28124561  0.77049189  0.59773901
   0.20850083  0.64339984  0.37179454
   0.74025971  0.71052267  0.53585744
   0.98652281  0.99030281  0.55043013
   0.70310456  0.73681815  0.43426040
   0.78788840  0.05928829  0.57676360
   0.45631390  0.32845159  0.40928789
   0.44826557  0.93705601  0.59471837
   0.50722682  0.04210875  0.58580420
   0.24424715  0.37040632  0.42094710
   0.65852534  0.33000211  0.45034791
   0.46012536  0.31895317  0.52899169
   0.33729937  0.58994254  0.39908301
   0.80281116  0.47672558  0.57963621
   0.06920979  0.89885916  0.48050551
   0.21190758  0.14445432  0.37359659
   0.07823286  0.49398499  0.49468762
   0.55757019  0.85234010  0.47473025
   0.71790207  0.58496510  0.60961592
   0.28664212  0.21010174  0.45911077
   0.08830421  0.62549141  0.56756458
   0.35162608  0.02020192  0.58108101
   0.48525531  0.48258439  0.57126325
   0.46197641  0.48205713  0.69035831

 position of ions in cartesian coordinates  (Angst):
  12.11276183  8.55260168 19.95861606
   9.62624148  9.65670927 20.75290621
   8.66183348  9.42010683 19.79167719
  10.17666931 11.03015881 21.06341495
   7.69704741  8.25891184 19.82244175
  17.80710441  1.86122568 17.50442377
  21.68887124  5.04982630  9.57948250
  18.57310935  3.75615001 10.03976840
  22.81522226 17.09935504  8.74523415
  14.64921175 17.45931981 10.08747787
  19.20986618 18.03075152  9.91976410
  17.55830880  2.55833368 12.31360861
  21.44526194  4.52015630 13.61298614
  13.66032332  5.51363181  8.22435231
  20.80571210  6.04533024 16.53238257
  13.84032214  6.53134909 16.51915832
  13.88719187 15.79536287 15.54439429
   0.48738466  6.00018444 17.80576731
  21.89589338  7.60211669 12.20777585
  17.46806539  9.60990927 11.35790489
  18.62981807  6.90617160 17.02498821
  13.83846346 10.30523625 10.16284657
  16.81946503 11.70510106 10.30871170
  19.69247867  9.82944087 11.28015755
   0.11154425 10.94156933  9.61828518
  19.39294954 12.90878407 12.57986315
  20.49033779 10.86194376 19.40559097
  12.17364643 17.85965257 11.33679820
   5.22293275 17.76161801 10.57067472
   5.06558822  4.31016263  8.58198589
   3.68730349  5.97649684  7.50000000
   7.99605454  2.81940543  8.89228530
   5.21406665  0.82920834  8.67629559
  11.96409347 14.97777985 14.69717930
   9.45116680  4.53251073 17.59562797
   5.68125924  1.69654548 16.10594486
   7.38347683  8.82751530 11.89413327
   9.57419369  7.95041833 10.90632902
   9.32938926 14.37219961 10.45189795
   5.71709332 11.87720376  7.91249741
   7.29826932  7.58329756  9.92688859
   9.49267817 10.58787004  9.10861924
   3.26254231  8.84268607  9.46104865
  13.88920341 12.64839014  9.47364424
  10.98005707 15.61013128 11.93160111
   2.54952454  6.04791680 16.48328483
   1.67844278 12.07250125 17.34371695
   5.87443740  6.45218374 18.03720174
   5.71502245 14.78029658 17.97355004
  12.27526176  7.67285765 20.58816735
  12.78535087  9.40100614 20.15973512
   9.80123611  8.87783835 21.50043332
   8.39565644 10.25540019 19.13533620
  11.25896408 11.02108099 21.24517832
   9.95443285 11.73713181 20.25531741
   9.68774758 11.38458463 21.98844751
   7.48251475  7.88830216 18.81334001
   8.07695661  7.43150565 20.43598333
   6.74277608  8.61382525 20.25052657
   8.63740362 11.74899635 11.80179838
   8.11940335  9.13371715 11.30144811
  20.14958195 10.26032816 18.72783976
   8.13988285 17.40950021 14.31575766
   0.78246168 16.89294043 14.21152012
  14.89790566  1.42919560 13.15609244
   1.60709516  0.94711408 10.62190669
  10.57955331  2.34782959 11.30707087
  18.86679123  3.87160553 12.98914499
  22.78417142  3.28102863 16.10298657
   6.43261122  5.42138248 12.05751853
  13.02497128 14.04561294 11.87575437
   9.15519144 17.63668889 16.70405086
   4.15590840  6.34186119 10.89510594
  20.28150790 12.39891101 17.13352799
  20.26706432 17.52644236 12.55556607
   7.04790320 13.78911669 12.31057251
   9.87045805  4.73421333 10.20482654
  18.98175452  8.44167501 13.97791420
  23.02495645  1.31367234 14.01619025
  11.87705722  8.45547209 16.89821003
   0.80854198 16.67059137 11.54385891
  22.54593219  5.49427402  9.44298747
   1.63005096  6.09065222 10.11814055
   4.87647100 13.20393591 10.62861051
   0.91072893  7.59464512 13.41772355
   5.52163706  5.19261382 15.78382925
   9.25753005  3.61231571 17.35329365
  10.61569778 10.24555572 15.49893313
  21.29865386 13.57553559 14.98690685
  20.34739459  1.95787901 11.88993046
  13.40476402 12.09287863 10.11168720
   3.33439013  2.88355087 10.10739962
   8.20258693 13.87465649 16.31649392
  21.32759690 15.31330727 12.98949491
   1.43600223  9.72877939 11.88926245
  16.58313365 10.06030463 11.28987623
   1.76725442 14.80154965 12.98450890
  16.39878711 14.99633320 11.63069310
  17.09446255  0.89106606 14.59651130
  21.41862931  5.40554192 16.94325164
  17.19944328 15.44313353 16.47580805
  14.63491423  9.55703168 13.07549710
  13.03010146 11.41099800 12.56123752
   9.96328401  4.50086884 14.95514281
  22.90303759 13.19667544 12.81787194
  15.30524972 10.77471221 17.02946956
   9.28011051 13.53866895 13.85280955
  14.10975474  9.38073831 10.36813464
  16.85029835 11.43026759 14.97121048
   3.14728195  6.62094836 15.96906286
   1.55232345  9.94319824 14.56704424
  19.16952953 16.02849794 14.42490705
  19.38959778  6.44001838 12.14868300
  12.34549308  5.41665710 14.32037588
  17.24273983  9.04838620 16.01197561
  13.05025009  3.12466491 10.61647095
  18.86866258  4.64651294 10.30420244
   5.55892333 17.27408272 13.65458756
  16.20941151 14.05449939 14.56217500
  21.62709001 17.20853019 14.86548020
  12.30818899  5.75858696 10.71452528
  10.90956115 17.97598560 14.69019916
  19.61189664  1.72054200 14.51233734
  12.59301152  2.10962891 13.07168996
   8.19848185  3.38158105 11.81890631
   0.27532438 17.44013032  9.01248080
  10.55089551 10.65584332 18.04477407
  15.33358375 16.76934745 10.19493214
   1.78612593 12.43164436 11.71794928
  10.58473258  7.35018830 14.83441561
  16.83785811 12.69249221 10.20446890
  10.56293918 12.78646046 16.13020370
  17.61819454 12.85383870 12.80442605
  18.22641093  2.18518742 16.69310864
  23.25384464  5.58158513 12.05458163
  12.52909913  9.19047269 14.29972425
  19.12182067  9.04361594 11.38355200
   5.50847209  2.64226199 16.27758061
   4.76497818 15.05333538 12.64952801
   5.62385608 10.13434493 14.04058216
   1.43366379 11.33549540 16.76501181
   1.07865368 10.91526713  9.52151395
  18.73795645 17.72955439 16.27977460
  12.59506368  0.50191281 10.87439573
  14.19979178  5.66506162 16.26658524
  20.16990973  0.07395004  9.92550906
   2.22199659  2.70047811 12.55674536
   4.01160270  3.65966490 14.24516450
  15.00637423 12.76530096 12.22697399
  10.22576747  7.42551173 10.38808912
  13.41600209  1.06335020 15.34692325
   3.54535369 10.75328740 10.45651017
   6.26813510 10.91510113 10.54651395
  10.30702050  5.83862960 12.64390410
   5.57211440  2.87241773 11.55719116
   1.70204474  2.72054042 15.12715520
  19.77599607  9.86025492 16.12638797
  14.54261459  5.07285683 11.04652184
  14.10921452 16.15556596 12.56053950
   0.73477264  3.53889327 10.45741115
  14.22482325  3.54321896 14.71810922
   3.10901351 17.00414686 12.89022683
   1.86031404  5.05933019 13.72706239
   8.65846077  1.93005366 15.41111511
   1.56999827 12.63182809 14.39922787
  15.60335581  7.52728779 11.56015827
  18.71224440 13.22024268 15.16318646
  16.47777184 17.34580083 12.64014391
  13.99532974 11.49556046 14.86792707
  16.92262720  5.32192920 12.14235921
  22.89396658  5.68806428 14.71868228
   3.71198478 11.41175241 15.34116323
  14.82716522  5.92171361 13.65139239
  19.17937696  7.18578581 16.27527919
  22.44155659  0.49367766 11.20910044
   6.60337150  3.54845891 13.94657332
   5.83544193  8.02830396 12.39472924
   6.36604109 15.40387664 15.29906784
   4.76813504 12.42343385 13.08920785
   3.44435051  8.62697504 13.24126574
   5.28363681  7.71835905 15.01062030
  21.33745138  8.20429214 12.73515651
  20.36286723 12.76750071 12.47800922
  17.28034963  1.68227812 11.96927179
   5.20160188 16.84878525 10.96698378
   5.25808855  7.07389646 17.62085696
  14.75958454 16.00855553 15.95139269
   9.60385771 14.29878657 11.38342242
  21.48621551  3.55245637 13.66334053
   3.10309823  8.03742301  8.93260776
   3.63220806  5.50021683  8.34890949
   8.73253334  2.37219755  9.35415932
   0.70036578  5.35783274 17.11002372
  13.40739699  4.65476936  8.60535697
   5.73101953 13.95130612 17.47090600
   4.85490080 11.74990154  8.34376522
   6.44687148  7.10699146  9.87629901
   8.55333550 10.82900896  9.20004704
   5.29986877  1.01806602  9.62744117
   5.64688233  3.55318002  8.85384768
  11.73544815 16.16960912 12.22767567
  12.87616031 15.00268082 14.36487374
  12.72590466 11.68274584 17.04825972
  11.18000439  2.23750356 16.01557176
   6.15138350 12.58052642 15.28320414
  10.34071584 15.37326272 15.62859021
  17.91473997 11.18851045 17.45753959
  19.77299513 15.07148855 16.74513482
  14.93990192 13.40254838 16.69420146
   0.19391633  0.59742516 16.21270567
   6.61639253  0.02720096 16.01427704
  11.76691664 17.62717798 16.89081895
   9.99545803  7.20926167 18.55365485
   1.94841153 10.98908596 10.92575188
   9.57661903 13.88097156 15.44819950
  19.70678074  7.99967650 12.57708649
   0.40008717 17.94875972 10.58159830
   0.34415087  5.14987929 10.51358498
   0.21830499  2.07837368 15.39445696
  14.23581008 11.90664699 16.42933773
   5.00958347  8.63154846 13.70407749
  21.42278905 13.69169878 13.34099278
  12.18741762  2.00159257 11.45195358
   9.77317304  3.10791764 15.87929570
   1.95373172  2.52197018 10.94101594
  16.43233932  0.81266960 13.10088356
  15.56990047 16.27354966 11.76083937
  15.21965321  9.13359373 11.56390395
   4.64622068 16.53530673 12.47363180
   4.77437991  6.61187058 16.10984601
  15.75305390 14.73187608 15.98864791
   5.07556426 11.62805039 14.47515376
   8.63383069 13.32142384 12.34509184
  18.65857203 16.09391654 16.00991738
  20.59500895 16.52999400 13.76381994
  13.49604295 10.41184746 13.76585766
  13.80696329  2.09298882 14.12027541
  20.08975493  2.75647992 13.31199648
  19.55156081 10.94128750 17.36236415
   3.13099191  6.52942423  9.59392828
  18.51026388  5.07284540 11.87902451
   9.34522920  3.21642612 10.64589911
  20.03692213 13.59264917 16.03530140
   6.60174418 16.95070449 14.80291805
   0.54020935  5.98811771 13.50205012
  13.45117902 12.60314055 11.70943634
   5.39023881 13.63805192 12.15046292
  13.89872944  5.14842829 14.73982575
  22.78331510  4.92689259 16.19753580
  20.81044864  0.46044249 11.40392910
   2.44419052  3.53893504 13.91711081
   1.12715225 13.28353886 12.97472440
   5.41206965  3.72753045 15.07323069
  13.14328356  4.67138795 10.24864117
  11.13000067 11.34047986 16.66933256
   6.58432371 13.96226605 16.06923694
   4.88127424 11.65920103  9.99508876
  17.33043811 12.87554960 14.40565186
  23.09577619 17.94551181 14.79741489
  16.46058793 13.35205634 11.67438144
  18.44548744  1.07437710 15.50534737
  10.68289909  5.95194918 11.00303640
  10.49447730 16.98061407 15.98803192
  11.87483657  0.76306269 15.74838906
   5.71814202  6.71222076 11.31647527
  15.41693082  5.98004644 12.10686792
  10.77213042  5.77982590 14.22107761
   7.89661487 10.69048858 10.72869482
  18.79484867  8.63885714 15.58257270
   1.62029077 16.28843974 12.91760565
   4.96103075  2.61769098 10.04353415
   1.83153245  8.95161914 13.29886860
  13.05343995 15.44545689 12.76234739
  16.80701682 10.60029115 16.38852810
   6.71066321  3.80730338 12.34244318
   2.06731596 11.33467799 15.25804658
   8.23202178  0.36608383 15.62141386
  11.36045508  8.74502603 15.35747921
  10.81546573  8.73547140 18.55915560



--------------------------------------------------------------------------------------------------------


 k-point  1 :   0.0000 0.0000 0.0000  plane waves:  289505
 k-point  2 :   0.3333 0.0000 0.0000  plane waves:  289422
 k-point  3 :   0.0000 0.3333 0.0000  plane waves:  289550
 k-point  4 :   0.3333 0.3333 0.0000  plane waves:  289551
 k-point  5 :  -0.3333 0.3333 0.0000  plane waves:  289551

 maximum and minimum number of plane-waves per node :     72451    72309

 maximum number of plane-waves:    289551
 maximum index in each direction: 
   IXMAX=   43   IYMAX=   33   IZMAX=   49
   IXMIN=  -43   IYMIN=  -33   IZMIN=  -49


 real space projection operators:
  total allocation   :      13918.02 KBytes
  max/ min on nodes  :       3486.88       3468.92


 parallel 3D FFT for wavefunctions:
    minimum data exchange during FFTs selected (reduces bandwidth)
 parallel 3D FFT for charge:
    minimum data exchange during FFTs selected (reduces bandwidth)


 total amount of memory used by VASP MPI-rank0   703432. kBytes
=======================================================================

   base      :      30000. kBytes
   nonlr-proj:      17143. kBytes
   fftplans  :      30982. kBytes
   grid      :      57864. kBytes
   one-center:       1088. kBytes
   wavefun   :     566355. kBytes

     INWAV:  cpu time    0.0000: real time    0.0000
 Broyden mixing: mesh for mixing (old mesh)
   NGX = 85   NGY = 67   NGZ = 99
  (NGX  =256   NGY  =200   NGZ  =300)
  gives a total of 563805 points

 initial charge density was supplied:
 charge density of overlapping atoms calculated
 number of electron    1264.0000000 magnetization 
 keeping initial charge density in first step


--------------------------------------------------------------------------------------------------------


 Maximum index for non-local projection operator          655
 Maximum index for augmentation-charges          378 (set IRDMAX)


--------------------------------------------------------------------------------------------------------


 First call to EWALD:  gamma=   0.079
 Maximum number of real-space cells 3x 3x 2
 Maximum number of reciprocal cells 3x 2x 3

    FEWALD:  cpu time    0.0271: real time    0.0271


--------------------------------------- Iteration      1(   1)  ---------------------------------------


    POTLOK:  cpu time    0.2810: real time    0.2876
    SETDIJ:  cpu time    0.5905: real time    0.5922
     EDDAV:  cpu time   81.8336: real time   82.1135
       DOS:  cpu time    0.0052: real time    0.0052
    --------------------------------------------
      LOOP:  cpu time   82.7102: real time   82.9984

 eigenvalue-minimisations  :  8704
 total energy-change (2. order) : 0.1302041E+05  (-0.5021723E+05)
 number of electron    1264.0000000 magnetization 
 augmentation part     1264.0000000 magnetization 

 DIPCOR: dipole corrections for dipol
 direction  3 min pos    77,
 dipolmoment           0.000000      0.000000      6.475717 electrons x Angstroem
 Tr[quadrupol]    -95763.336892

 energy correction for charged system         0.000000 eV
 dipol+quadrupol energy correction           -0.340952 eV
 added-field ion interaction        888.945436 eV  (added to PSCEN)


 Free energy of the ion-electron system (eV)
  ---------------------------------------------------
  alpha Z        PSCENC =      1383.92129147
  Ewald energy   TEWEN  =    310003.36224981
  -Hartree energ DENC   =   -372375.21806120
  -exchange      EXHF   =         0.00000000
  -V(xc)+E(xc)   XCENC  =      3795.61855133
  PAW double counting   =     60068.29421653   -59086.67348277
  entropy T*S    EENTRO =        -1.63346774
  eigenvalues    EBANDS =     -5646.83949395
  atomic energy  EATOM  =     74879.57743707
  Solvation  Ediel_sol  =         0.00000000
  ---------------------------------------------------
  free energy    TOTEN  =     13020.40924056 eV

  energy without entropy =    13022.04270829  energy(sigma->0) =    13021.22597443


--------------------------------------------------------------------------------------------------------




--------------------------------------- Iteration      1(   2)  ---------------------------------------


     EDDAV:  cpu time   97.2961: real time   97.6504
       DOS:  cpu time    0.0012: real time    0.0012
    --------------------------------------------
      LOOP:  cpu time   97.2973: real time   97.6516

 eigenvalue-minimisations  : 10760
 total energy-change (2. order) :-0.1244064E+05  (-0.1204557E+05)
 number of electron    1264.0000000 magnetization 
 augmentation part     1264.0000000 magnetization 

 DIPCOR: dipole corrections for dipol
 direction  3 min pos    77,
 dipolmoment           0.000000      0.000000      6.475717 electrons x Angstroem
 Tr[quadrupol]    -95763.336892

 energy correction for charged system         0.000000 eV
 dipol+quadrupol energy correction           -0.340952 eV
 added-field ion interaction        888.945436 eV  (added to PSCEN)


 Free energy of the ion-electron system (eV)
  ---------------------------------------------------
  alpha Z        PSCENC =      1383.92129147
  Ewald energy   TEWEN  =    310003.36224981
  -Hartree energ DENC   =   -372375.21806120
  -exchange      EXHF   =         0.00000000
  -V(xc)+E(xc)   XCENC  =      3795.61855133
  PAW double counting   =     60068.29421653   -59086.67348277
  entropy T*S    EENTRO =        -0.00000000
  eigenvalues    EBANDS =    -18089.10890347
  atomic energy  EATOM  =     74879.57743707
  Solvation  Ediel_sol  =         0.00000000
  ---------------------------------------------------
  free energy    TOTEN  =       579.77329878 eV

  energy without entropy =      579.77329878  energy(sigma->0) =      579.77329878


--------------------------------------------------------------------------------------------------------




--------------------------------------- Iteration      1(   3)  ---------------------------------------


     EDDAV:  cpu time   84.9973: real time   85.2894
       DOS:  cpu time    0.0012: real time    0.0012
    --------------------------------------------
      LOOP:  cpu time   84.9985: real time   85.2906

 eigenvalue-minimisations  :  9064
 total energy-change (2. order) :-0.2613249E+04  (-0.2602223E+04)
 number of electron    1264.0000000 magnetization 
 augmentation part     1264.0000000 magnetization 

 DIPCOR: dipole corrections for dipol
 direction  3 min pos    77,
 dipolmoment           0.000000      0.000000      6.475717 electrons x Angstroem
 Tr[quadrupol]    -95763.336892

 energy correction for charged system         0.000000 eV
 dipol+quadrupol energy correction           -0.340952 eV
 added-field ion interaction        888.945436 eV  (added to PSCEN)


 Free energy of the ion-electron system (eV)
  ---------------------------------------------------
  alpha Z        PSCENC =      1383.92129147
  Ewald energy   TEWEN  =    310003.36224981
  -Hartree energ DENC   =   -372375.21806120
[...]
     20.26706     17.52644     12.55557        -0.051990      1.272259     -0.960806
      7.04790     13.78912     12.31057        -0.364869     -0.084403     -0.122888
      9.87046      4.73421     10.20483         0.403132      0.007927      0.498047
     18.98176      8.44166     13.97784        -0.001909      0.000236      0.005684
     23.02514      1.31352     14.01619         0.009171      0.003320     -0.004997
     11.87737      8.45546     16.89781         0.017555     -0.003200      0.004880
      0.80854     16.67059     11.54386        -0.113358      0.448135     -0.291918
     22.54593      5.49427      9.44299         0.172427     -0.185101      0.393985
      1.63005      6.09065     10.11814         0.299180     -0.126892     -0.049194
      4.87647     13.20394     10.62861         0.416841     -0.167928      0.406878
      0.91073      7.59465     13.41772         0.390781      0.035180      0.120174
      5.52166      5.19285     15.78392         0.011262     -0.019050     -0.003638
      9.25748      3.61180     17.35281        -0.002181      0.011516      0.002110
     10.61569     10.24536     15.49901        -0.001561     -0.012472      0.010768
     21.29841     13.57549     14.98715        -0.005437     -0.003052      0.003838
     20.34739      1.95788     11.88993        -0.102747     -0.053977      0.415877
     13.40476     12.09288     10.11169        -0.259695      0.195034      0.067216
      3.33439      2.88355     10.10740        -0.009868     -0.061343      0.165443
      8.20262     13.87463     16.31638        -0.009872      0.000231     -0.006007
     21.32760     15.31331     12.98949         0.326806     -1.491006      0.183645
      1.43600      9.72878     11.88926         0.545043      0.293415      0.026093
     16.58313     10.06030     11.28988        -0.097265     -0.552540     -0.058353
      1.76725     14.80155     12.98451        -0.025178     -6.351729      0.288844
     16.39879     14.99633     11.63069         1.820997     -3.805401     -0.213067
     17.09446      0.89096     14.59644         0.001111     -0.006051     -0.004378
     21.41803      5.40605     16.94304         0.034675     -0.021716      0.005869
     17.19941     15.44338     16.47582        -0.008635      0.007681      0.014225
     14.63491      9.55703     13.07550         2.000921     -1.197639     -1.310052
     13.03010     11.41100     12.56124        -3.547915     -2.791380      1.719222
      9.96345      4.50077     14.95519         0.005076      0.000327      0.006734
     22.90304     13.19668     12.81787         0.430056      0.290645      0.253602
     15.30518     10.77468     17.02947        -0.006823     -0.001467      0.000975
      9.28014     13.53862     13.85309        -0.002703     -0.005087      0.005946
     14.10975      9.38074     10.36813         0.275141     -0.124223      0.340705
     16.85052     11.43042     14.97129         0.008802     -0.000130     -0.002274
      3.14715      6.62108     15.96918         0.009375      0.013472     -0.001585
      1.55231      9.94322     14.56706        -0.002125     -0.003113     -0.001249
     19.16960     16.02855     14.42468        -0.026812     -0.003118      0.021875
     19.38960      6.44002     12.14868        -0.125517      0.237318      0.200844
     12.34602      5.41664     14.32042        -0.009098      0.008648     -0.009707
     17.24256      9.04855     16.01198        -0.010625      0.005073     -0.000636
     13.05025      3.12466     10.61647        -1.372106     -1.815880      0.505767
     18.86866      4.64651     10.30420        -0.037638     -0.026261      0.747788
      5.55892     17.27408     13.65459        -0.738441      0.219836     -0.836878
     16.20968     14.05432     14.56207         0.006470      0.006181     -0.004037
     21.62682     17.20844     14.86539         0.008508      0.011429      0.009237
     12.30819      5.75859     10.71453        -7.858814      6.645258      3.168271
     10.90950     17.97608     14.69026        -0.001217      0.007894     -0.004305
     19.61194      1.72050     14.51249         0.008002      0.001958      0.005844
     12.59301      2.10963     13.07169        -2.125734      0.616494     -1.160789
      8.19848      3.38158     11.81891        -0.108334      0.149888      0.037376
      0.27532     17.44013      9.01248        -0.255253      0.108724      0.307059
     10.55075     10.65612     18.04438        -0.015283      0.002257     -0.006333
     15.33358     16.76935     10.19493        -0.564208      0.130147      0.610296
      1.78613     12.43164     11.71795         0.012809     -0.130034      0.086980
     10.58490      7.35015     14.83446         0.009817     -0.005849      0.004073
     16.83786     12.69249     10.20447        -0.043655      0.281630      0.471066
     10.56280     12.78676     16.13022         0.004349     -0.008196      0.008170
     17.61819     12.85384     12.80443        -0.387434      0.259135     -1.070721
     18.22647      2.18517     16.69303        -0.002227      0.001417      0.008677
     23.25384      5.58159     12.05458         0.115712      0.032824     -0.084692
     12.52908      9.19035     14.29991         0.004130     -0.001088      0.011015
     19.12182      9.04362     11.38355         0.349880     -0.394797      0.407364
      5.50845      2.64236     16.27750         0.002093     -0.003328     -0.001253
      4.76498     15.05334     12.64953         0.591277     -6.669480      0.320097
      5.62383     10.13435     14.04062        -0.002457      0.003014      0.004368
      1.43370     11.33553     16.76494         0.004573      0.002196      0.000085
      1.07865     10.91527      9.52151         0.181125      0.224172      0.419679
     18.73797     17.72987     16.27986         0.000305      0.014126      0.004041
     12.59506      0.50191     10.87440        -0.221026      0.378835      0.153280
     14.19994      5.66474     16.26667        -0.011251      0.015632      0.005440
     20.16991      0.07395      9.92551        -0.071497      0.004182      0.284129
      2.22200      2.70048     12.55675        -0.137142     -0.262912     -1.049047
      4.01174      3.65976     14.24521        -0.000673      0.001710      0.005265
     15.00637     12.76530     12.22697         2.670603      0.226489     -0.649059
     10.22577      7.42551     10.38809         0.257023     -0.702368      0.500786
     13.41629      1.06344     15.34689         0.004611      0.000716      0.002580
      3.54535     10.75329     10.45651         0.005647      0.706831      0.065219
      6.26814     10.91510     10.54651         0.141430      0.314810      0.019570
     10.30702      5.83863     12.64390         0.377837      0.019915     -0.790508
      5.57211      2.87242     11.55719         0.345147      0.277261     -0.372730
      1.70207      2.72047     15.12710         0.005569     -0.003204      0.006481
     19.77584      9.86030     16.12609        -0.009088      0.014994     -0.007982
     14.54261      5.07286     11.04652         1.382422      0.641995      0.823010
     14.10921     16.15557     12.56054        23.551682     14.648739     -4.531489
      0.73477      3.53889     10.45741         0.400476      0.165347      0.243260
     14.22498      3.54290     14.71806         0.011257     -0.012682     -0.004978
      3.10901     17.00415     12.89023         0.010606     -0.148215     -0.333751
      1.86023      5.05953     13.72713         0.003737     -0.000666      0.008471
      8.65868      1.93032     15.41125        -0.000526     -0.003825      0.005314
      1.56992     12.63207     14.39914         0.010739     -0.003941      0.008179
     15.60336      7.52729     11.56016        -0.315570      0.175804      0.437350
     18.71224     13.22032     15.16321         0.004017      0.001391     -0.002888
     16.47777     17.34580     12.64014        -0.771506      0.369183     -0.214109
     13.99540     11.49573     14.86785         0.007152      0.017608     -0.001597
     16.92263      5.32193     12.14236         0.264262      0.044572     -0.028573
     22.89401      5.68807     14.71874         0.004976      0.001080      0.002058
      3.71202     11.41180     15.34110         0.001020      0.003056     -0.001913
     14.82717      5.92171     13.65139         0.342083      0.196716     -0.716829
     19.17937      7.18559     16.27556         0.011035      0.002177     -0.002071
     22.44156      0.49368     11.20910        -0.302428     -0.373841     -0.333617
      6.60342      3.54815     13.94656        -0.002995     -0.021275      0.004028
      5.83544      8.02830     12.39473        -0.071740     -0.729739     -0.509514
      6.36594     15.40416     15.29908         0.001197     -0.013958      0.011601
      4.76814     12.42343     13.08921         0.232146      0.613830     -0.415922
      3.44435      8.62698     13.24127        -0.214416      0.104758      0.175403
      5.28370      7.71856     15.01046         0.001949      0.004130     -0.000085
     21.33745      8.20429     12.73516        -0.274010     -0.145434     -0.123679
     20.36287     12.76750     12.47801         0.329757      0.276679      0.429662
     17.28035      1.68228     11.96927        -0.167623     -0.264864      0.469641
      5.20160     16.84879     10.96698        -0.326614      0.371378      0.361368
      5.25801      7.07385     17.62079        -0.000066     -0.010856     -0.001981
     14.75958     16.00871     15.95163        -0.006249      0.010042      0.016772
      9.60386     14.29879     11.38342        -0.511490     -0.393387      0.277183
     21.48622      3.55246     13.66334        -0.742703     -0.010786     -0.070994
      3.10310      8.03742      8.93261         0.098444     -0.235670      0.300057
      3.63221      5.50022      8.34891        -0.156736      0.546427      0.339864
      8.73253      2.37220      9.35416         0.188130      0.600012      0.326731
      0.70032      5.35767     17.10988        -0.006815      0.001468      0.012700
     13.40740      4.65477      8.60536        -0.199690      0.162799      0.193800
      5.73099     13.95102     17.47034        -0.015344      0.010956     -0.004549
      4.85490     11.74990      8.34377         0.080779     -0.126783      0.487378
      6.44687      7.10699      9.87630         0.026519      0.052177      0.688025
      8.55334     10.82901      9.20005        -0.079762     -0.024468      0.722700
      5.29987      1.01807      9.62744        -0.066756      0.782832      0.102184
      5.64688      3.55318      8.85385        -0.369144     -0.055196      0.434307
     11.73545     16.16961     12.22768        -2.222040      1.055423     -0.708554
     12.87634     15.00283     14.36469        -0.012358      0.009916      0.001633
     12.72599     11.68273     17.04834         0.007791     -0.000726      0.005208
     11.17968      2.23786     16.01565         0.004838      0.002430     -0.004230
      6.15160     12.58090     15.28320        -0.005142     -0.003160     -0.017732
     10.34060     15.37299     15.62856        -0.008587      0.004134     -0.003448
     17.91452     11.18845     17.45755        -0.003850     -0.006612     -0.000662
     19.77312     15.07169     16.74530         0.003605      0.000550     -0.007856
     14.94004     13.40250     16.69423         0.002322      0.001524      0.005243
      0.19377      0.59722     16.21259         0.006469      0.003285      0.000221
      6.61628      0.02731     16.01440        -0.006478      0.005758      0.003241
     11.76697     17.62711     16.89078         0.005218     -0.006389      0.000190
      9.99566      7.20892     18.55327         0.026334      0.000489     -0.015933
      1.94841     10.98909     10.92575        -0.069340     -0.160620      0.085659
      9.57647     13.88109     15.44809        -0.007963      0.002354     -0.002308
     19.70678      7.99968     12.57709         0.088468     -0.106499     -0.265857
      0.40009     17.94876     10.58160         0.117967     -0.115605      0.338998
      0.34415      5.14988     10.51358         0.061826      0.031133      0.134276
      0.21849      2.07839     15.39424         0.004179      0.003323     -0.008016
     14.23604     11.90685     16.42934         0.006902      0.008030     -0.002965
      5.00957      8.63155     13.70411        -0.000468      0.002689     -0.004187
     21.42279     13.69170     13.34099         0.188403      0.236982     -0.623843
     12.18742      2.00159     11.45195         0.169272     -0.062702      0.515697
      9.77309      3.10796     15.87949        -0.002051     -0.001962     -0.005983
      1.95373      2.52197     10.94102         0.083555     -0.093815      0.202292
     16.43234      0.81267     13.10088         0.073469     -0.080365     -0.320044
     15.56990     16.27355     11.76084        -0.479514      4.537709     -0.189621
     15.21965      9.13359     11.56390         0.052553      0.081551      0.309502
      4.64622     16.53531     12.47363        -0.723731      6.159069     -0.337183
      4.77435      6.61159     16.10978        -0.005811     -0.001625     -0.010854
     15.75282     14.73190     15.98865        -0.003794      0.001025     -0.005868
      5.07544     11.62803     14.47524         0.003296      0.004607      0.001882
      8.63383     13.32142     12.34509        -0.343666     -0.006020      0.006362
     18.65838     16.09373     16.00992        -0.002540      0.002595     -0.004647
     20.59513     16.53012     13.76395         0.002462      0.004075      0.001004
     13.49613     10.41216     13.76572         0.000488      0.004930     -0.000597
     13.80699      2.09294     14.12008         0.002565     -0.000882     -0.007919
     20.08975      2.75648     13.31200        -0.198483     -0.027097     -0.420885
     19.55157     10.94125     17.36247        -0.010211      0.005743     -0.010087
      3.13099      6.52942      9.59393        -0.108945     -0.120595      0.105296
     18.51026      5.07285     11.87902        -0.299126      0.103664      0.097435
      9.34523      3.21643     10.64590        -0.129566     -0.297767      0.257818
     20.03711     13.59260     16.03508        -0.002475      0.004333     -0.002272
      6.60183     16.95058     14.80288         0.006772     -0.000286     -0.004931
      0.54021      5.98812     13.50205         0.430663      0.241223     -0.332608
     13.45118     12.60314     11.70944         3.895351     -0.910961     -2.404621
      5.39024     13.63805     12.15046         0.150970     -0.591131      0.026524
     13.89850      5.14843     14.73950         0.004706     -0.010404     -0.006283
     22.78365      4.92681     16.19742        -0.010415      0.004388      0.000849
     20.81045      0.46044     11.40393         0.026476      0.041506      0.138823
      2.44445      3.53869     13.91717         0.008256     -0.001182     -0.002961
      1.12715     13.28354     12.97472        -0.105975     -0.558061     -0.247650
      5.41183      3.72747     15.07329         0.001487      0.002674      0.000876
     13.14328      4.67139     10.24864         8.342886     -5.348510     -3.538124
     11.12994     11.34027     16.66974        -0.000988      0.008198     -0.004162
      6.58409     13.96201     16.06949         0.005137      0.002062     -0.004515
      4.88127     11.65920      9.99509         0.071696     -0.070114      0.062570
     17.33030     12.87544     14.40555         0.004468     -0.006570     -0.003479
     23.09597     17.94593     14.79746         0.004220     -0.003739     -0.005007
     16.46059     13.35206     11.67438        -0.708981     -1.374657      0.381925
     18.44548      1.07463     15.50533        -0.003410      0.006969     -0.001911
     10.68290      5.95195     11.00304        -1.161263      0.543701      0.525100
     10.49472     16.98073     15.98802        -0.001517     -0.005537      0.001234
     11.87468      0.76283     15.74835         0.005309      0.014417     -0.005351
      5.71814      6.71222     11.31648         0.012530     -0.141645     -0.081987
     15.41693      5.98005     12.10687        -0.163990     -0.441350     -0.800721
     10.77186      5.77987     14.22122         0.002912     -0.004039      0.009262
      7.89661     10.69049     10.72869        -0.120313     -0.069412     -0.004628
     18.79485      8.63897     15.58288        -0.002352     -0.005462      0.007867
      1.62029     16.28844     12.91761        -0.328302      6.412023     -0.527960
      4.96103      2.61769     10.04353        -0.096938     -0.028904      0.111802
      1.83153      8.95162     13.29887         0.026573     -0.280394     -0.204019
     13.05344     15.44546     12.76235       -22.320122    -15.872924      4.748459
     16.80696     10.60007     16.38876        -0.006075     -0.004332      0.006162
      6.71066      3.80730     12.34244        -0.256236      0.036791     -0.684627
      2.06746     11.33440     15.25785         0.001828     -0.000711     -0.010395
      8.23200      0.36576     15.62146        -0.001725      0.003648     -0.002337
     11.36049      8.74484     15.35780         0.005180     -0.006135      0.001240
     10.81540      8.73581     18.55879        -0.000593     -0.004862     -0.012606
 -----------------------------------------------------------------------------------
    total drift:                                0.083714      0.192461      0.474314


--------------------------------------------------------------------------------------------------------



  FREE ENERGIE OF THE ION-ELECTRON SYSTEM (eV)
  ---------------------------------------------------
  free  energy   TOTEN  =     -1903.24021647 eV

  energy  without entropy=    -1903.24021647  energy(sigma->0) =    -1903.24021647

 d Force = 0.4186876E-05[-0.427E-05, 0.126E-04]  d Energy = 0.1591586E-05 0.260E-05
 d Force = 0.1391741E+00[ 0.139E+00, 0.139E+00]  d Ewald  = 0.1391741E+00-0.161E-07


--------------------------------------------------------------------------------------------------------


    POTLOK:  cpu time    0.8523: real time    0.8545


--------------------------------------------------------------------------------------------------------


 stress matrix after NEB project (eV)
    -32.96653     -0.01912      0.35607
     -0.01912    -33.53522     -0.41534
      0.35607     -0.41534    -25.34692
  FORCES: max atom, RMS     0.041333    0.009310
  FORCE total and by dimension    0.155510    0.034675
  Stress total and by dimension   53.427233   33.535221


--------------------------------------------------------------------------------------------------------


  
 reached required accuracy - stopping structural energy minimisation
     LOOP+:  cpu time  126.9403: real time  127.3861
    4ORBIT:  cpu time    0.0000: real time    0.0000

 total amount of memory used by VASP MPI-rank0   703432. kBytes
=======================================================================

   base      :      30000. kBytes
   nonlr-proj:      17143. kBytes
   fftplans  :      30982. kBytes
   grid      :      57864. kBytes
   one-center:       1088. kBytes
   wavefun   :     566355. kBytes

  
  
 General timing and accounting informations for this job:
 ========================================================
  
                  Total CPU time used (sec):     1976.710
                            User time (sec):     1972.762
                          System time (sec):        3.948
                         Elapsed time (sec):     1985.752
  
                   Maximum memory used (kb):     1001004.
                   Average memory used (kb):           0.
  
                          Minor page faults:      4871886
                          Major page faults:          153
                 Voluntary context switches:         6079
