 running on   64 total cores
 each image running on    8 cores
 distrk:  each k-point on    8 cores,    1 groups
 distr:  one band on    4 cores,    2 groups
 vasp.5.4.4.18Apr17-6-g9f103f2a35 (build Oct 20 2021 08:33:53) complex           
 POSCAR found type information on POSCAR  C  H  O  Si W 
 01/POSCAR found :  5 types and     276 ions
 scaLAPACK will be used

 ----------------------------------------------------------------------------- 
|                                                                             |
|  ADVICE TO THIS USER RUNNING 'VASP/VAMP'   (HEAR YOUR MASTER'S VOICE ...):  |
|                                                                             |
|      You enforced a specific xc-type in the INCAR file,                     |
|      a different type was found on the POTCAR file                          |
|          I HOPE YOU KNOW, WHAT YOU ARE  DOING                               |
|                                                                             |
 ----------------------------------------------------------------------------- 

 LDA part: xc-table for Pade appr. of Perdew
 POSCAR found type information on POSCAR  C  H  O  Si W 
 00/POSCAR found :  5 types and     276 ions
 POSCAR found type information on POSCAR  C  H  O  Si W 
 09/POSCAR found :  5 types and     276 ions
 Jacobian:    57.435951621747570     
 POSCAR, INCAR and KPOINTS ok, starting setup
 FFT: planning ...
 WAVECAR not read
 WARNING: random wavefunctions but no delay for mixing, default for NELMDL
 entering main loop
       N       E                     dE             d eps       ncg     rms          rms(c)
DAV:   1     0.129721099665E+05    0.12972E+05   -0.49306E+05  1704   0.123E+03
DAV:   2     0.655533993390E+03   -0.12317E+05   -0.11917E+05  2152   0.313E+02
DAV:   3    -0.201702875656E+04   -0.26726E+04   -0.26630E+04  1800   0.155E+02
DAV:   4    -0.211432087034E+04   -0.97292E+02   -0.96927E+02  1760   0.343E+01
DAV:   5    -0.211708255757E+04   -0.27617E+01   -0.27582E+01  1928   0.508E+00    0.130E+02
RMM:   6    -0.186687762224E+04    0.25020E+03   -0.11124E+03  1537   0.331E+01    0.532E+01
RMM:   7    -0.186553481156E+04    0.13428E+01   -0.57323E+01  1536   0.657E+00    0.285E+01
RMM:   8    -0.186539524424E+04    0.13957E+00   -0.13824E+01  1536   0.367E+00    0.117E+01
RMM:   9    -0.186390421301E+04    0.14910E+01   -0.44209E+00  1536   0.193E+00    0.264E+00
RMM:  10    -0.186368066614E+04    0.22355E+00   -0.63733E-01  1536   0.772E-01    0.139E+00
RMM:  11    -0.186355515965E+04    0.12551E+00   -0.22666E-01  1536   0.462E-01    0.832E-01
RMM:  12    -0.186350677352E+04    0.48386E-01   -0.72405E-02  1536   0.254E-01    0.252E-01
RMM:  13    -0.186349203962E+04    0.14734E-01   -0.24166E-02  1547   0.139E-01    0.260E-01
RMM:  14    -0.186349084422E+04    0.11954E-02   -0.23256E-02  1537   0.130E-01    0.153E-01
RMM:  15    -0.186349735735E+04   -0.65131E-02   -0.69905E-03  1499   0.651E-02    0.629E-02
RMM:  16    -0.186350596897E+04   -0.86116E-02   -0.42696E-03  1405   0.487E-02    0.367E-02
RMM:  17    -0.186351244431E+04   -0.64753E-02   -0.10197E-03  1307   0.263E-02    0.227E-02
RMM:  18    -0.186351613121E+04   -0.36869E-02   -0.41919E-04  1178   0.157E-02    0.248E-02
RMM:  19    -0.186351811384E+04   -0.19826E-02   -0.21715E-04   949   0.111E-02    0.808E-03
RMM:  20    -0.186351864897E+04   -0.53512E-03   -0.73765E-05   767   0.645E-03    0.637E-03
RMM:  21    -0.186351894615E+04   -0.29718E-03   -0.29548E-05   826   0.470E-03    0.306E-03
RMM:  22    -0.186351906284E+04   -0.11669E-03   -0.10392E-05   579   0.296E-03    0.204E-03
RMM:  23    -0.186351914627E+04   -0.83428E-04   -0.43592E-06   465   0.249E-03
   1 F= -.18875355E+04 E0= -.18875355E+04  d E =-.188754E+04
quench:  g(F)=  0.000E+00 g(S)=  0.000E+00 dE (1.order)= 0.000E+00
 bond charge predicted
       N       E                     dE             d eps       ncg     rms          rms(c)
DAV:   1    -0.186351921555E+04   -0.15271E-03   -0.37472E-03  1472   0.787E-02    0.170E-02
RMM:   2    -0.186351922940E+04   -0.13848E-04   -0.84777E-05   906   0.115E-02
   2 F= -.18875356E+04 E0= -.18875356E+04  d E =-.112505E-03
quench:  g(F)=  0.000E+00 g(S)=  0.000E+00 dE (1.order)= 0.000E+00
 bond charge predicted
       N       E                     dE             d eps       ncg     rms          rms(c)
DAV:   1    -0.186351928437E+04   -0.68818E-04   -0.75784E-03  1568   0.103E-01    0.215E-02
RMM:   2    -0.186351930066E+04   -0.16299E-04   -0.14303E-04   928   0.142E-02
   3 F= -.18875358E+04 E0= -.18875358E+04  d E =-.155506E-03
quench:  g(F)=  0.000E+00 g(S)=  0.000E+00 dE (1.order)= 0.000E+00
 bond charge predicted
       N       E                     dE             d eps       ncg     rms          rms(c)
DAV:   1    -0.186351935294E+04   -0.68578E-04   -0.15341E-02  1696   0.145E-01    0.316E-02
RMM:   2    -0.186351937843E+04   -0.25490E-04   -0.28579E-04  1002   0.195E-02
   4 F= -.18875360E+04 E0= -.18875360E+04  d E =-.217421E-03
quench:  g(F)=  0.000E+00 g(S)=  0.000E+00 dE (1.order)= 0.000E+00
 bond charge predicted
       N       E                     dE             d eps       ncg     rms          rms(c)
DAV:   1    -0.186351947159E+04   -0.11865E-03   -0.22804E-02  1696   0.168E-01    0.369E-02
RMM:   2    -0.186351950386E+04   -0.32268E-04   -0.39958E-04  1046   0.217E-02
   5 F= -.18875363E+04 E0= -.18875363E+04  d E =-.289474E-03
quench:  g(F)=  0.000E+00 g(S)=  0.000E+00 dE (1.order)= 0.000E+00
 bond charge predicted
       N       E                     dE             d eps       ncg     rms          rms(c)
DAV:   1    -0.186351959468E+04   -0.12308E-03   -0.36050E-02  1656   0.215E-01    0.487E-02
RMM:   2    -0.186351964609E+04   -0.51409E-04   -0.65878E-04  1129   0.283E-02
   6 F= -.18875366E+04 E0= -.18875366E+04  d E =-.337910E-03
quench:  g(F)=  0.000E+00 g(S)=  0.000E+00 dE (1.order)= 0.000E+00
 bond charge predicted
       N       E                     dE             d eps       ncg     rms          rms(c)
DAV:   1    -0.186351972897E+04   -0.13429E-03   -0.44803E-02  1648   0.235E-01    0.551E-02
RMM:   2    -0.186351979033E+04   -0.61362E-04   -0.80582E-04  1161   0.307E-02
   7 F= -.18875370E+04 E0= -.18875370E+04  d E =-.394596E-03
quench:  g(F)=  0.000E+00 g(S)=  0.000E+00 dE (1.order)= 0.000E+00
 bond charge predicted
       N       E                     dE             d eps       ncg     rms          rms(c)
DAV:   1    -0.186351988788E+04   -0.15892E-03   -0.70179E-02  1632   0.295E-01    0.686E-02
RMM:   2    -0.186351998688E+04   -0.98993E-04   -0.12809E-03  1279   0.383E-02    0.407E-02
RMM:   3    -0.186351997481E+04    0.12068E-04   -0.48385E-05   904   0.766E-03
   8 F= -.18875375E+04 E0= -.18875375E+04  d E =-.506112E-03
quench:  g(F)=  0.000E+00 g(S)=  0.000E+00 dE (1.order)= 0.000E+00
 bond charge predicted
       N       E                     dE             d eps       ncg     rms          rms(c)
DAV:   1    -0.186351999562E+04   -0.87420E-05   -0.12945E-01  1648   0.401E-01    0.749E-02
RMM:   2    -0.186352020483E+04   -0.20921E-03   -0.24076E-03  1417   0.520E-02    0.404E-02
RMM:   3    -0.186352018822E+04    0.16608E-04   -0.63249E-05   906   0.858E-03
   9 F= -.18875382E+04 E0= -.18875382E+04  d E =-.658171E-03
quench:  g(F)=  0.000E+00 g(S)=  0.000E+00 dE (1.order)= 0.000E+00
 bond charge predicted
       N       E                     dE             d eps       ncg     rms          rms(c)
DAV:   1    -0.186352003673E+04    0.16810E-03   -0.21982E-01  1584   0.524E-01    0.103E-01
RMM:   2    -0.186352039307E+04   -0.35634E-03   -0.41559E-03  1492   0.683E-02    0.527E-02
RMM:   3    -0.186352036015E+04    0.32919E-04   -0.10625E-04   923   0.108E-02
  10 F= -.18875390E+04 E0= -.18875390E+04  d E =-.810328E-03
quench:  g(F)=  0.000E+00 g(S)=  0.000E+00 dE (1.order)= 0.000E+00
 bond charge predicted
       N       E                     dE             d eps       ncg     rms          rms(c)
DAV:   1    -0.186351998883E+04    0.40424E-03   -0.34921E-01  1584   0.667E-01    0.132E-01
RMM:   2    -0.186352056441E+04   -0.57558E-03   -0.67314E-03  1513   0.880E-02    0.719E-02
RMM:   3    -0.186352050783E+04    0.56576E-04   -0.17201E-04   940   0.138E-02
  11 F= -.18875399E+04 E0= -.18875399E+04  d E =-.899383E-03
quench:  g(F)=  0.000E+00 g(S)=  0.000E+00 dE (1.order)= 0.000E+00
 bond charge predicted
       N       E                     dE             d eps       ncg     rms          rms(c)
DAV:   1    -0.186351971076E+04    0.85365E-03   -0.56297E-01  1568   0.855E-01    0.174E-01
RMM:   2    -0.186352065996E+04   -0.94920E-03   -0.11273E-02  1526   0.116E-01    0.891E-02
RMM:   3    -0.186352055139E+04    0.10856E-03   -0.30336E-04   985   0.182E-02    0.567E-02
RMM:   4    -0.186352053284E+04    0.18553E-04   -0.29983E-04  1000   0.160E-02
  12 F= -.18875409E+04 E0= -.18875409E+04  d E =-.988305E-03
quench:  g(F)=  0.000E+00 g(S)=  0.000E+00 dE (1.order)= 0.000E+00
 bond charge predicted
       N       E                     dE             d eps       ncg     rms          rms(c)
DAV:   1    -0.186351817901E+04    0.23724E-02   -0.79979E-01  1568   0.104E+00    0.223E-01
RMM:   2    -0.186351959948E+04   -0.14205E-02   -0.17411E-02  1532   0.147E-01    0.110E-01
RMM:   3    -0.186351940462E+04    0.19487E-03   -0.50307E-04  1102   0.236E-02    0.666E-02
RMM:   4    -0.186351936787E+04    0.36745E-04   -0.44841E-04  1142   0.194E-02
  13 F= -.18875413E+04 E0= -.18875413E+04  d E =-.454806E-03
quench:  g(F)=  0.000E+00 g(S)=  0.000E+00 dE (1.order)= 0.000E+00
 bond charge predicted
       N       E                     dE             d eps       ncg     rms          rms(c)
DAV:   1    -0.186352017838E+04   -0.77376E-03   -0.43966E-02  1712   0.268E-01    0.775E-02
RMM:   2    -0.186352026688E+04   -0.88501E-04   -0.14030E-03  1329   0.431E-02    0.346E-02
RMM:   3    -0.186352024018E+04    0.26704E-04   -0.56568E-05   896   0.849E-03
  14 F= -.18875421E+04 E0= -.18875421E+04  d E =-.821324E-03
quench:  g(F)=  0.000E+00 g(S)=  0.000E+00 dE (1.order)= 0.000E+00
 bond charge predicted
       N       E                     dE             d eps       ncg     rms          rms(c)
DAV:   1    -0.186351980814E+04    0.45874E-03   -0.65434E-02  1696   0.332E-01    0.986E-02
RMM:   2    -0.186351994241E+04   -0.13427E-03   -0.19144E-03  1467   0.513E-02    0.416E-02
RMM:   3    -0.186351990426E+04    0.38155E-04   -0.61065E-05   902   0.884E-03
  15 F= -.18875418E+04 E0= -.18875418E+04  d E =0.357384E-03
quench:  g(F)=  0.000E+00 g(S)=  0.000E+00 dE (1.order)= 0.000E+00
 bond charge predicted
       N       E                     dE             d eps       ncg     rms          rms(c)
DAV:   1    -0.186352007044E+04   -0.12803E-03   -0.21864E-03  1640   0.597E-02    0.177E-02
RMM:   2    -0.186352007755E+04   -0.71125E-05   -0.10709E-04   907   0.120E-02
  16 F= -.18875420E+04 E0= -.18875420E+04  d E =-.198094E-03
quench:  g(F)=  0.000E+00 g(S)=  0.000E+00 dE (1.order)= 0.000E+00
 bond charge predicted
       N       E                     dE             d eps       ncg     rms          rms(c)
DAV:   1    -0.186352029956E+04   -0.22912E-03   -0.60887E-03  1712   0.989E-02    0.311E-02
RMM:   2    -0.186352030803E+04   -0.84762E-05   -0.18018E-04   962   0.158E-02
  17 F= -.18875423E+04 E0= -.18875423E+04  d E =-.279376E-03
quench:  g(F)=  0.000E+00 g(S)=  0.000E+00 dE (1.order)= 0.000E+00
 bond charge predicted
       N       E                     dE             d eps       ncg     rms          rms(c)
DAV:   1    -0.186352034312E+04   -0.43564E-04   -0.98638E-03  1712   0.126E-01    0.408E-02
RMM:   2    -0.186352035473E+04   -0.11610E-04   -0.27933E-04  1019   0.197E-02
  18 F= -.18875424E+04 E0= -.18875424E+04  d E =-.119413E-03
quench:  g(F)=  0.000E+00 g(S)=  0.000E+00 dE (1.order)= 0.000E+00
 bond charge predicted
       N       E                     dE             d eps       ncg     rms          rms(c)
DAV:   1    -0.186352016635E+04    0.17677E-03   -0.78411E-03  1720   0.115E-01    0.378E-02
RMM:   2    -0.186352017086E+04   -0.45125E-05   -0.20940E-04   983   0.177E-02
  19 F= -.18875423E+04 E0= -.18875423E+04  d E =0.908303E-04
quench:  g(F)=  0.000E+00 g(S)=  0.000E+00 dE (1.order)= 0.000E+00
 bond charge predicted
       N       E                     dE             d eps       ncg     rms          rms(c)
DAV:   1    -0.186352017971E+04   -0.13361E-04   -0.78735E-05  1120   0.121E-02    0.979E-03
RMM:   2    -0.186352017952E+04    0.19489E-06   -0.14173E-05   792   0.458E-03
  20 F= -.18875423E+04 E0= -.18875423E+04  d E =-.107119E-04
quench:  g(F)=  0.000E+00 g(S)=  0.000E+00 dE (1.order)= 0.000E+00
 bond charge predicted
       N       E                     dE             d eps       ncg     rms          rms(c)
DAV:   1    -0.186352020806E+04   -0.28354E-04   -0.16753E-04  1272   0.165E-02    0.506E-03
RMM:   2    -0.186352020889E+04   -0.82687E-06   -0.91918E-06   703   0.421E-03
  21 F= -.18875423E+04 E0= -.18875423E+04  d E =-.335876E-04
quench:  g(F)=  0.000E+00 g(S)=  0.000E+00 dE (1.order)= 0.000E+00
 bond charge predicted
       N       E                     dE             d eps       ncg     rms          rms(c)
DAV:   1    -0.186352024516E+04   -0.37095E-04   -0.31794E-04  1472   0.227E-02    0.608E-03
RMM:   2    -0.186352024602E+04   -0.85899E-06   -0.10285E-05   615   0.424E-03
  22 F= -.18875424E+04 E0= -.18875424E+04  d E =-.435234E-04
quench:  g(F)=  0.000E+00 g(S)=  0.000E+00 dE (1.order)= 0.000E+00
 bond charge predicted
       N       E                     dE             d eps       ncg     rms          rms(c)
DAV:   1    -0.186352028131E+04   -0.36154E-04   -0.48373E-04  1568   0.280E-02    0.771E-03
RMM:   2    -0.186352028236E+04   -0.10452E-05   -0.14205E-05   657   0.470E-03
  23 F= -.18875424E+04 E0= -.18875424E+04  d E =-.440668E-04
quench:  g(F)=  0.000E+00 g(S)=  0.000E+00 dE (1.order)= 0.000E+00
 bond charge predicted
       N       E                     dE             d eps       ncg     rms          rms(c)
DAV:   1    -0.186352030662E+04   -0.25306E-04   -0.63346E-04  1600   0.322E-02    0.925E-03
RMM:   2    -0.186352030774E+04   -0.11229E-05   -0.18403E-05   756   0.526E-03
  24 F= -.18875425E+04 E0= -.18875425E+04  d E =-.358578E-04
quench:  g(F)=  0.000E+00 g(S)=  0.000E+00 dE (1.order)= 0.000E+00
 bond charge predicted
       N       E                     dE             d eps       ncg     rms          rms(c)
DAV:   1    -0.186352031635E+04   -0.97321E-05   -0.71143E-04  1592   0.343E-02    0.993E-03
RMM:   2    -0.186352031738E+04   -0.10268E-05   -0.20242E-05   773   0.553E-03
  25 F= -.18875425E+04 E0= -.18875425E+04  d E =-.232650E-04
quench:  g(F)=  0.000E+00 g(S)=  0.000E+00 dE (1.order)= 0.000E+00
 bond charge predicted
       N       E                     dE             d eps       ncg     rms          rms(c)
DAV:   1    -0.186352030764E+04    0.87050E-05   -0.85062E-04  1608   0.377E-02    0.106E-02
RMM:   2    -0.186352030872E+04   -0.10714E-05   -0.23257E-05   828   0.595E-03
  26 F= -.18875425E+04 E0= -.18875425E+04  d E =-.116249E-04
quench:  g(F)=  0.000E+00 g(S)=  0.000E+00 dE (1.order)= 0.000E+00
 bond charge predicted
       N       E                     dE             d eps       ncg     rms          rms(c)
DAV:   1    -0.186352028179E+04    0.25857E-04   -0.84585E-04  1584   0.378E-02    0.102E-02
RMM:   2    -0.186352028276E+04   -0.97469E-06   -0.22165E-05   824   0.588E-03
  27 F= -.18875425E+04 E0= -.18875425E+04  d E =-.271268E-05
quench:  g(F)=  0.000E+00 g(S)=  0.000E+00 dE (1.order)= 0.000E+00
 bond charge predicted
       N       E                     dE             d eps       ncg     rms          rms(c)
DAV:   1    -0.186352025375E+04    0.28036E-04   -0.79681E-04  1600   0.363E-02    0.892E-03
RMM:   2    -0.186352025467E+04   -0.92307E-06   -0.18436E-05   796   0.542E-03
  28 F= -.18875425E+04 E0= -.18875425E+04  d E =-.961601E-05
quench:  g(F)=  0.000E+00 g(S)=  0.000E+00 dE (1.order)= 0.000E+00
 bond charge predicted
       N       E                     dE             d eps       ncg     rms          rms(c)
DAV:   1    -0.186352023321E+04    0.20544E-04   -0.94868E-04  1592   0.384E-02    0.856E-03
RMM:   2    -0.186352023463E+04   -0.14187E-05   -0.19824E-05   758   0.549E-03
  29 F= -.18875425E+04 E0= -.18875425E+04  d E =-.297307E-04
quench:  g(F)=  0.000E+00 g(S)=  0.000E+00 dE (1.order)= 0.000E+00
 bond charge predicted
       N       E                     dE             d eps       ncg     rms          rms(c)
DAV:   1    -0.186352022705E+04    0.61564E-05   -0.14865E-03  1584   0.486E-02    0.106E-02
RMM:   2    -0.186352022967E+04   -0.26147E-05   -0.32567E-05   817   0.704E-03
  30 F= -.18875426E+04 E0= -.18875426E+04  d E =-.571026E-04
quench:  g(F)=  0.000E+00 g(S)=  0.000E+00 dE (1.order)= 0.000E+00
 bond charge predicted
       N       E                     dE             d eps       ncg     rms          rms(c)
DAV:   1    -0.186352021594E+04    0.11107E-04   -0.25767E-03  1640   0.644E-02    0.152E-02
RMM:   2    -0.186352022007E+04   -0.41298E-05   -0.56538E-05   867   0.928E-03
  31 F= -.18875427E+04 E0= -.18875427E+04  d E =-.672739E-04
quench:  g(F)=  0.000E+00 g(S)=  0.000E+00 dE (1.order)= 0.000E+00
 bond charge predicted
       N       E                     dE             d eps       ncg     rms          rms(c)
DAV:   1    -0.186352017302E+04    0.42921E-04   -0.36807E-03  1672   0.766E-02    0.179E-02
RMM:   2    -0.186352017817E+04   -0.51501E-05   -0.77141E-05   889   0.108E-02
  32 F= -.18875427E+04 E0= -.18875427E+04  d E =-.516205E-04
quench:  g(F)=  0.000E+00 g(S)=  0.000E+00 dE (1.order)= 0.000E+00
 bond charge predicted
       N       E                     dE             d eps       ncg     rms          rms(c)
DAV:   1    -0.186352010262E+04    0.70403E-04   -0.44321E-03  1688   0.821E-02    0.182E-02
RMM:   2    -0.186352010856E+04   -0.59373E-05   -0.85585E-05   897   0.111E-02
  33 F= -.18875428E+04 E0= -.18875428E+04  d E =-.418865E-04
quench:  g(F)=  0.000E+00 g(S)=  0.000E+00 dE (1.order)= 0.000E+00
 bond charge predicted
       N       E                     dE             d eps       ncg     rms          rms(c)
DAV:   1    -0.186352003824E+04    0.64385E-04   -0.54571E-03  1672   0.886E-02    0.191E-02
RMM:   2    -0.186352004626E+04   -0.80239E-05   -0.10183E-04   899   0.117E-02
  34 F= -.18875428E+04 E0= -.18875428E+04  d E =-.644694E-04
quench:  g(F)=  0.000E+00 g(S)=  0.000E+00 dE (1.order)= 0.000E+00
 bond charge predicted
       N       E                     dE             d eps       ncg     rms          rms(c)
DAV:   1    -0.186351999836E+04    0.39876E-04   -0.80259E-03  1656   0.109E-01    0.236E-02
RMM:   2    -0.186352001067E+04   -0.12315E-04   -0.15342E-04   919   0.146E-02
  35 F= -.18875429E+04 E0= -.18875429E+04  d E =-.971385E-04
quench:  g(F)=  0.000E+00 g(S)=  0.000E+00 dE (1.order)= 0.000E+00
 bond charge predicted
       N       E                     dE             d eps       ncg     rms          rms(c)
DAV:   1    -0.186351994649E+04    0.51867E-04   -0.12338E-02  1536   0.136E-01    0.304E-02
RMM:   2    -0.186351996497E+04   -0.18478E-04   -0.24527E-04   980   0.185E-02
  36 F= -.18875430E+04 E0= -.18875430E+04  d E =-.878595E-04
quench:  g(F)=  0.000E+00 g(S)=  0.000E+00 dE (1.order)= 0.000E+00
 bond charge predicted
       N       E                     dE             d eps       ncg     rms          rms(c)
DAV:   1    -0.186351987315E+04    0.73343E-04   -0.15756E-02  1648   0.150E-01    0.328E-02
RMM:   2    -0.186351989560E+04   -0.22453E-04   -0.29877E-04  1002   0.196E-02
  37 F= -.18875431E+04 E0= -.18875431E+04  d E =-.894167E-04
quench:  g(F)=  0.000E+00 g(S)=  0.000E+00 dE (1.order)= 0.000E+00
 bond charge predicted
       N       E                     dE             d eps       ncg     rms          rms(c)
DAV:   1    -0.186351978503E+04    0.88118E-04   -0.23071E-02  1672   0.181E-01    0.404E-02
RMM:   2    -0.186351982010E+04   -0.35064E-04   -0.44638E-04  1082   0.239E-02
  38 F= -.18875432E+04 E0= -.18875432E+04  d E =-.133992E-03
quench:  g(F)=  0.000E+00 g(S)=  0.000E+00 dE (1.order)= 0.000E+00
 bond charge predicted
       N       E                     dE             d eps       ncg     rms          rms(c)
DAV:   1    -0.186351963015E+04    0.15488E-03   -0.32795E-02  1552   0.215E-01    0.485E-02
RMM:   2    -0.186351967860E+04   -0.48452E-04   -0.63204E-04  1155   0.283E-02
  39 F= -.18875433E+04 E0= -.18875433E+04  d E =-.114683E-03
quench:  g(F)=  0.000E+00 g(S)=  0.000E+00 dE (1.order)= 0.000E+00
 bond charge predicted
       N       E                     dE             d eps       ncg     rms          rms(c)
DAV:   1    -0.186351945453E+04    0.17562E-03   -0.43727E-02  1624   0.245E-01    0.549E-02
RMM:   2    -0.186351951885E+04   -0.64322E-04   -0.82261E-04  1206   0.316E-02
  40 F= -.18875435E+04 E0= -.18875435E+04  d E =-.137544E-03
quench:  g(F)=  0.000E+00 g(S)=  0.000E+00 dE (1.order)= 0.000E+00
 bond charge predicted
       N       E                     dE             d eps       ncg     rms          rms(c)
DAV:   1    -0.186351920258E+04    0.25194E-03   -0.64901E-02  1552   0.302E-01    0.692E-02
RMM:   2    -0.186351930370E+04   -0.10112E-03   -0.12783E-03  1344   0.401E-02    0.417E-02
RMM:   3    -0.186351929295E+04    0.10748E-04   -0.50420E-05   903   0.771E-03
  41 F= -.18875436E+04 E0= -.18875436E+04  d E =-.135858E-03
quench:  g(F)=  0.000E+00 g(S)=  0.000E+00 dE (1.order)= 0.000E+00
 bond charge predicted
       N       E                     dE             d eps       ncg     rms          rms(c)
DAV:   1    -0.186351882388E+04    0.47982E-03   -0.96199E-02  1560   0.370E-01    0.707E-02
RMM:   2    -0.186351898836E+04   -0.16448E-03   -0.18706E-03  1431   0.483E-02    0.370E-02
RMM:   3    -0.186351897596E+04    0.12406E-04   -0.52995E-05   907   0.799E-03
  42 F= -.18875438E+04 E0= -.18875438E+04  d E =-.161942E-03
quench:  g(F)=  0.000E+00 g(S)=  0.000E+00 dE (1.order)= 0.000E+00
 bond charge predicted
       N       E                     dE             d eps       ncg     rms          rms(c)
DAV:   1    -0.186351830364E+04    0.68472E-03   -0.14124E-01  1552   0.449E-01    0.850E-02
RMM:   2    -0.186351854701E+04   -0.24337E-03   -0.27618E-03  1491   0.587E-02    0.424E-02
RMM:   3    -0.186351852763E+04    0.19385E-04   -0.72260E-05   914   0.916E-03
  43 F= -.18875439E+04 E0= -.18875439E+04  d E =-.146679E-03
quench:  g(F)=  0.000E+00 g(S)=  0.000E+00 dE (1.order)= 0.000E+00
 bond charge predicted
       N       E                     dE             d eps       ncg     rms          rms(c)
DAV:   1    -0.186351782007E+04    0.72694E-03   -0.19979E-01  1552   0.534E-01    0.101E-01
RMM:   2    -0.186351817139E+04   -0.35132E-03   -0.39793E-03  1508   0.702E-02    0.511E-02
RMM:   3    -0.186351814109E+04    0.30301E-04   -0.10002E-04   919   0.109E-02
  44 F= -.18875441E+04 E0= -.18875441E+04  d E =-.207198E-03
quench:  g(F)=  0.000E+00 g(S)=  0.000E+00 dE (1.order)= 0.000E+00
 bond charge predicted
       N       E                     dE             d eps       ncg     rms          rms(c)
DAV:   1    -0.186351727019E+04    0.90120E-03   -0.29270E-01  1536   0.650E-01    0.125E-01
RMM:   2    -0.186351778401E+04   -0.51382E-03   -0.58940E-03  1522   0.859E-02    0.615E-02
RMM:   3    -0.186351773338E+04    0.50630E-04   -0.14400E-04   930   0.132E-02
  45 F= -.18875444E+04 E0= -.18875444E+04  d E =-.250433E-03
quench:  g(F)=  0.000E+00 g(S)=  0.000E+00 dE (1.order)= 0.000E+00
 bond charge predicted
       N       E                     dE             d eps       ncg     rms          rms(c)
DAV:   1    -0.186351624757E+04    0.15364E-02   -0.40248E-01  1552   0.759E-01    0.147E-01
RMM:   2    -0.186351696394E+04   -0.71637E-03   -0.81849E-03  1528   0.100E-01    0.713E-02
RMM:   3    -0.186351689530E+04    0.68638E-04   -0.20015E-04   944   0.154E-02
  46 F= -.18875446E+04 E0= -.18875446E+04  d E =-.205056E-03
quench:  g(F)=  0.000E+00 g(S)=  0.000E+00 dE (1.order)= 0.000E+00
 bond charge predicted
       N       E                     dE             d eps       ncg     rms          rms(c)
DAV:   1    -0.186351510195E+04    0.18620E-02   -0.51654E-01  1536   0.872E-01    0.173E-01
RMM:   2    -0.186351600955E+04   -0.90760E-03   -0.10545E-02  1530   0.116E-01    0.841E-02
RMM:   3    -0.186351591372E+04    0.95825E-04   -0.27402E-04   966   0.181E-02
  47 F= -.18875444E+04 E0= -.18875444E+04  d E =0.145490E-03
quench:  g(F)=  0.000E+00 g(S)=  0.000E+00 dE (1.order)= 0.000E+00
 bond charge predicted
       N       E                     dE             d eps       ncg     rms          rms(c)
DAV:   1    -0.186351622220E+04   -0.21265E-03   -0.21731E-02  1712   0.195E-01    0.552E-02
RMM:   2    -0.186351627860E+04   -0.56403E-04   -0.77287E-04  1204   0.332E-02
  48 F= -.18875449E+04 E0= -.18875449E+04  d E =-.440019E-03
quench:  g(F)=  0.000E+00 g(S)=  0.000E+00 dE (1.order)= 0.000E+00
 bond charge predicted
       N       E                     dE             d eps       ncg     rms          rms(c)
DAV:   1    -0.186351614836E+04    0.73843E-04   -0.41945E-02  1648   0.271E-01    0.839E-02
RMM:   2    -0.186351620398E+04   -0.55627E-04   -0.11558E-03  1427   0.414E-02    0.468E-02
RMM:   3    -0.186351617534E+04    0.28647E-04   -0.47220E-05   902   0.784E-03
  49 F= -.18875449E+04 E0= -.18875449E+04  d E =0.117903E-05
quench:  g(F)=  0.000E+00 g(S)=  0.000E+00 dE (1.order)= 0.000E+00
 bond charge predicted
       N       E                     dE             d eps       ncg     rms          rms(c)
DAV:   1    -0.186351624669E+04   -0.42710E-04   -0.10515E-03  1608   0.428E-02    0.135E-02
RMM:   2    -0.186351625020E+04   -0.35100E-05   -0.59311E-05   880   0.931E-03
  50 F= -.18875450E+04 E0= -.18875450E+04  d E =-.821518E-04
quench:  g(F)=  0.000E+00 g(S)=  0.000E+00 dE (1.order)= 0.000E+00
 bond charge predicted
       N       E                     dE             d eps       ncg     rms          rms(c)
DAV:   1    -0.186351634979E+04   -0.10309E-03   -0.26700E-03  1704   0.671E-02    0.209E-02
RMM:   2    -0.186351635283E+04   -0.30440E-05   -0.74703E-05   887   0.107E-02
  51 F= -.18875451E+04 E0= -.18875451E+04  d E =-.117882E-03
quench:  g(F)=  0.000E+00 g(S)=  0.000E+00 dE (1.order)= 0.000E+00
 bond charge predicted
       N       E                     dE             d eps       ncg     rms          rms(c)
DAV:   1    -0.186351638403E+04   -0.34239E-04   -0.42341E-03  1688   0.846E-02    0.268E-02
RMM:   2    -0.186351638905E+04   -0.50238E-05   -0.10802E-04   910   0.129E-02
  52 F= -.18875451E+04 E0= -.18875451E+04  d E =-.620966E-04
quench:  g(F)=  0.000E+00 g(S)=  0.000E+00 dE (1.order)= 0.000E+00
 bond charge predicted
       N       E                     dE             d eps       ncg     rms          rms(c)
DAV:   1    -0.186351634453E+04    0.39500E-04   -0.37296E-03  1696   0.798E-02    0.243E-02
RMM:   2    -0.186351634781E+04   -0.32873E-05   -0.90491E-05   899   0.119E-02
  53 F= -.18875451E+04 E0= -.18875451E+04  d E =0.369555E-05
quench:  g(F)=  0.000E+00 g(S)=  0.000E+00 dE (1.order)= 0.000E+00
 bond charge predicted
       N       E                     dE             d eps       ncg     rms          rms(c)
DAV:   1    -0.186351635242E+04   -0.78964E-05   -0.36547E-05  1104   0.840E-03    0.679E-03
RMM:   2    -0.186351635225E+04    0.16885E-06   -0.46619E-06   618   0.308E-03
  54 F= -.18875451E+04 E0= -.18875451E+04  d E =-.605431E-05
quench:  g(F)=  0.000E+00 g(S)=  0.000E+00 dE (1.order)= 0.000E+00
 bond charge predicted
       N       E                     dE             d eps       ncg     rms          rms(c)
DAV:   1    -0.186351636337E+04   -0.10947E-04   -0.85995E-05  1112   0.122E-02    0.330E-03
RMM:   2    -0.186351636380E+04   -0.43189E-06   -0.51594E-06   666   0.343E-03
  55 F= -.18875452E+04 E0= -.18875452E+04  d E =-.151883E-04
quench:  g(F)=  0.000E+00 g(S)=  0.000E+00 dE (1.order)= 0.000E+00
 bond charge predicted
       N       E                     dE             d eps       ncg     rms          rms(c)
DAV:   1    -0.186351637665E+04   -0.13276E-04   -0.15958E-04  1192   0.165E-02    0.418E-03
RMM:   2    -0.186351637725E+04   -0.60699E-06   -0.73149E-06   649   0.396E-03
  56 F= -.18875452E+04 E0= -.18875452E+04  d E =-.186572E-04
quench:  g(F)=  0.000E+00 g(S)=  0.000E+00 dE (1.order)= 0.000E+00
 bond charge predicted
       N       E                     dE             d eps       ncg     rms          rms(c)
DAV:   1    -0.186351638876E+04   -0.12117E-04   -0.24413E-04  1424   0.201E-02    0.511E-03
RMM:   2    -0.186351638919E+04   -0.42633E-06   -0.69614E-06   538   0.377E-03
  57 F= -.18875452E+04 E0= -.18875452E+04  d E =-.187693E-04
quench:  g(F)=  0.000E+00 g(S)=  0.000E+00 dE (1.order)= 0.000E+00
 bond charge predicted
       N       E                     dE             d eps       ncg     rms          rms(c)
DAV:   1    -0.186351639491E+04   -0.61421E-05   -0.32302E-04  1520   0.232E-02    0.597E-03
RMM:   2    -0.186351639535E+04   -0.44490E-06   -0.82919E-06   574   0.391E-03
  58 F= -.18875452E+04 E0= -.18875452E+04  d E =-.158244E-04
quench:  g(F)=  0.000E+00 g(S)=  0.000E+00 dE (1.order)= 0.000E+00
 bond charge predicted
       N       E                     dE             d eps       ncg     rms          rms(c)
DAV:   1    -0.186351639077E+04    0.41309E-05   -0.37287E-04  1544   0.252E-02    0.636E-03
RMM:   2    -0.186351639123E+04   -0.45808E-06   -0.94699E-06   619   0.412E-03
  59 F= -.18875452E+04 E0= -.18875452E+04  d E =-.832068E-05
quench:  g(F)=  0.000E+00 g(S)=  0.000E+00 dE (1.order)= 0.000E+00
 bond charge predicted
       N       E                     dE             d eps       ncg     rms          rms(c)
DAV:   1    -0.186351637541E+04    0.15369E-04   -0.48096E-04  1552   0.287E-02    0.680E-03
RMM:   2    -0.186351637606E+04   -0.65134E-06   -0.12187E-05   710   0.453E-03
  60 F= -.18875452E+04 E0= -.18875452E+04  d E =-.283841E-05
quench:  g(F)=  0.000E+00 g(S)=  0.000E+00 dE (1.order)= 0.000E+00
 bond charge predicted
       N       E                     dE             d eps       ncg     rms          rms(c)
DAV:   1    -0.186351634828E+04    0.27122E-04   -0.60137E-04  1568   0.317E-02    0.707E-03
RMM:   2    -0.186351634913E+04   -0.84167E-06   -0.14243E-05   712   0.482E-03
  61 F= -.18875452E+04 E0= -.18875452E+04  d E =0.107742E-05
quench:  g(F)=  0.000E+00 g(S)=  0.000E+00 dE (1.order)= 0.000E+00
 bond charge predicted
       N       E                     dE             d eps       ncg     rms          rms(c)
DAV:   1    -0.186351631101E+04    0.37274E-04   -0.78254E-04  1560   0.355E-02    0.748E-03
RMM:   2    -0.186351631221E+04   -0.12013E-05   -0.17516E-05   710   0.521E-03
  62 F= -.18875452E+04 E0= -.18875452E+04  d E =0.173640E-05
quench:  g(F)=  0.000E+00 g(S)=  0.000E+00 dE (1.order)= 0.000E+00
 bond charge predicted
       N       E                     dE             d eps       ncg     rms          rms(c)
DAV:   1    -0.186351626984E+04    0.41175E-04   -0.11221E-03  1584   0.420E-02    0.854E-03
RMM:   2    -0.186351627166E+04   -0.18285E-05   -0.23572E-05   717   0.594E-03
  63 F= -.18875452E+04 E0= -.18875452E+04  d E =-.360261E-05
quench:  g(F)=  0.000E+00 g(S)=  0.000E+00 dE (1.order)= 0.000E+00
 bond charge predicted
       N       E                     dE             d eps       ncg     rms          rms(c)
DAV:   1    -0.186351622097E+04    0.48865E-04   -0.17500E-03  1528   0.525E-02    0.107E-02
RMM:   2    -0.186351622397E+04   -0.29975E-05   -0.36577E-05   768   0.740E-03
  64 F= -.18875452E+04 E0= -.18875452E+04  d E =-.854098E-05
quench:  g(F)=  0.000E+00 g(S)=  0.000E+00 dE (1.order)= 0.000E+00
 bond charge predicted
       N       E                     dE             d eps       ncg     rms          rms(c)
DAV:   1    -0.186351615261E+04    0.68366E-04   -0.27638E-03  1496   0.660E-02    0.134E-02
RMM:   2    -0.186351615708E+04   -0.44796E-05   -0.55950E-05   845   0.913E-03
  65 F= -.18875452E+04 E0= -.18875452E+04  d E =-.178757E-05
quench:  g(F)=  0.000E+00 g(S)=  0.000E+00 dE (1.order)= 0.000E+00
 bond charge predicted
       N       E                     dE             d eps       ncg     rms          rms(c)
DAV:   1    -0.186351606144E+04    0.91162E-04   -0.38781E-03  1616   0.771E-02    0.148E-02
RMM:   2    -0.186351606766E+04   -0.62217E-05   -0.77793E-05   877   0.105E-02
  66 F= -.18875452E+04 E0= -.18875452E+04  d E =0.860856E-05
quench:  g(F)=  0.000E+00 g(S)=  0.000E+00 dE (1.order)= 0.000E+00
 bond charge predicted
       N       E                     dE             d eps       ncg     rms          rms(c)
DAV:   1    -0.186351595614E+04    0.10531E-03   -0.56065E-03  1632   0.919E-02    0.173E-02
RMM:   2    -0.186351596474E+04   -0.86009E-05   -0.10792E-04   904   0.122E-02
  67 F= -.18875452E+04 E0= -.18875452E+04  d E =0.802384E-05
quench:  g(F)=  0.000E+00 g(S)=  0.000E+00 dE (1.order)= 0.000E+00
 bond charge predicted
       N       E                     dE             d eps       ncg     rms          rms(c)
DAV:   1    -0.186351582135E+04    0.13479E-03   -0.83714E-03  1672   0.112E-01    0.214E-02
RMM:   2    -0.186351583410E+04   -0.12751E-04   -0.15986E-04   929   0.148E-02
  68 F= -.18875452E+04 E0= -.18875452E+04  d E =0.200889E-04
quench:  g(F)=  0.000E+00 g(S)=  0.000E+00 dE (1.order)= 0.000E+00
 bond charge predicted
       N       E                     dE             d eps       ncg     rms          rms(c)
DAV:   1    -0.186351565477E+04    0.16658E-03   -0.11478E-02  1600   0.130E-01    0.246E-02
RMM:   2    -0.186351567240E+04   -0.17632E-04   -0.22016E-04   957   0.171E-02
  69 F= -.18875452E+04 E0= -.18875452E+04  d E =0.288895E-04
quench:  g(F)=  0.000E+00 g(S)=  0.000E+00 dE (1.order)= 0.000E+00
 bond charge predicted
       N       E                     dE             d eps       ncg     rms          rms(c)
DAV:   1    -0.186351544045E+04    0.21432E-03   -0.15330E-02  1544   0.150E-01    0.291E-02
RMM:   2    -0.186351546428E+04   -0.23834E-04   -0.29702E-04  1001   0.196E-02
  70 F= -.18875451E+04 E0= -.18875451E+04  d E =0.425056E-04
quench:  g(F)=  0.000E+00 g(S)=  0.000E+00 dE (1.order)= 0.000E+00
 bond charge predicted
       N       E                     dE             d eps       ncg     rms          rms(c)
DAV:   1    -0.186351518111E+04    0.25934E-03   -0.20333E-02  1552   0.173E-01    0.358E-02
RMM:   2    -0.186351521235E+04   -0.31242E-04   -0.39594E-04  1049   0.227E-02
  71 F= -.18875451E+04 E0= -.18875451E+04  d E =0.543601E-04
quench:  g(F)=  0.000E+00 g(S)=  0.000E+00 dE (1.order)= 0.000E+00
 bond charge predicted
       N       E                     dE             d eps       ncg     rms          rms(c)
DAV:   1    -0.186351486291E+04    0.31820E-03   -0.26611E-02  1536   0.197E-01    0.418E-02
RMM:   2    -0.186351490307E+04   -0.40169E-04   -0.51206E-04  1106   0.258E-02
  72 F= -.18875450E+04 E0= -.18875450E+04  d E =0.795836E-04
quench:  g(F)=  0.000E+00 g(S)=  0.000E+00 dE (1.order)= 0.000E+00
 bond charge predicted
       N       E                     dE             d eps       ncg     rms          rms(c)
DAV:   1    -0.186351452537E+04    0.33754E-03   -0.34527E-02  1536   0.223E-01    0.468E-02
RMM:   2    -0.186351457831E+04   -0.52941E-04   -0.66697E-04  1163   0.293E-02
  73 F= -.18875449E+04 E0= -.18875449E+04  d E =0.594944E-04
quench:  g(F)=  0.000E+00 g(S)=  0.000E+00 dE (1.order)= 0.000E+00
 bond charge predicted
       N       E                     dE             d eps       ncg     rms          rms(c)
DAV:   1    -0.186351409102E+04    0.43435E-03   -0.44531E-02  1552   0.252E-01    0.531E-02
RMM:   2    -0.186351415938E+04   -0.68357E-04   -0.85683E-04  1218   0.330E-02
  74 F= -.18875448E+04 E0= -.18875448E+04  d E =0.950663E-04
quench:  g(F)=  0.000E+00 g(S)=  0.000E+00 dE (1.order)= 0.000E+00
 bond charge predicted
       N       E                     dE             d eps       ncg     rms          rms(c)
DAV:   1    -0.186351360672E+04    0.48430E-03   -0.56010E-02  1568   0.282E-01    0.607E-02
RMM:   2    -0.186351369238E+04   -0.85657E-04   -0.10823E-03  1291   0.372E-02    0.363E-02
RMM:   3    -0.186351368321E+04    0.91704E-05   -0.41933E-05   893   0.749E-03
  75 F= -.18875447E+04 E0= -.18875447E+04  d E =0.124294E-03
quench:  g(F)=  0.000E+00 g(S)=  0.000E+00 dE (1.order)= 0.000E+00
 bond charge predicted
       N       E                     dE             d eps       ncg     rms          rms(c)
DAV:   1    -0.186351300706E+04    0.68532E-03   -0.79065E-02  1584   0.334E-01    0.667E-02
RMM:   2    -0.186351313964E+04   -0.13259E-03   -0.15161E-03  1404   0.439E-02    0.318E-02
RMM:   3    -0.186351312893E+04    0.10712E-04   -0.41912E-05   895   0.760E-03
  76 F= -.18875446E+04 E0= -.18875446E+04  d E =0.142291E-03
quench:  g(F)=  0.000E+00 g(S)=  0.000E+00 dE (1.order)= 0.000E+00
 bond charge predicted
       N       E                     dE             d eps       ncg     rms          rms(c)
DAV:   1    -0.186351230153E+04    0.83811E-03   -0.10448E-01  1536   0.380E-01    0.778E-02
RMM:   2    -0.186351247551E+04   -0.17398E-03   -0.19876E-03  1452   0.498E-02    0.380E-02
RMM:   3    -0.186351246172E+04    0.13790E-04   -0.54843E-05   909   0.831E-03
  77 F= -.18875444E+04 E0= -.18875444E+04  d E =0.144878E-03
quench:  g(F)=  0.000E+00 g(S)=  0.000E+00 dE (1.order)= 0.000E+00
 bond charge predicted
       N       E                     dE             d eps       ncg     rms          rms(c)
DAV:   1    -0.186351149440E+04    0.98111E-03   -0.14961E-01  1568   0.456E-01    0.970E-02
RMM:   2    -0.186351174446E+04   -0.25006E-03   -0.28963E-03  1498   0.605E-02    0.448E-02
RMM:   3    -0.186351172029E+04    0.24172E-04   -0.76124E-05   915   0.972E-03
  78 F= -.18875442E+04 E0= -.18875442E+04  d E =0.243499E-03
quench:  g(F)=  0.000E+00 g(S)=  0.000E+00 dE (1.order)= 0.000E+00
 bond charge predicted
       N       E                     dE             d eps       ncg     rms          rms(c)
DAV:   1    -0.186351074840E+04    0.99607E-03   -0.20600E-01  1536   0.539E-01    0.112E-01
RMM:   2    -0.186351109984E+04   -0.35144E-03   -0.41196E-03  1510   0.727E-02    0.551E-02
RMM:   3    -0.186351106195E+04    0.37891E-04   -0.10855E-04   917   0.116E-02
  79 F= -.18875440E+04 E0= -.18875440E+04  d E =0.204475E-03
quench:  g(F)=  0.000E+00 g(S)=  0.000E+00 dE (1.order)= 0.000E+00
 bond charge predicted
       N       E                     dE             d eps       ncg     rms          rms(c)
DAV:   1    -0.186350977370E+04    0.13261E-02   -0.29762E-01  1544   0.652E-01    0.138E-01
RMM:   2    -0.186351030041E+04   -0.52671E-03   -0.61983E-03  1520   0.890E-02    0.678E-02
RMM:   3    -0.186351024034E+04    0.60071E-04   -0.16384E-04   927   0.142E-02
  80 F= -.18875437E+04 E0= -.18875437E+04  d E =0.317912E-03
quench:  g(F)=  0.000E+00 g(S)=  0.000E+00 dE (1.order)= 0.000E+00
 bond charge predicted
       N       E                     dE             d eps       ncg     rms          rms(c)
DAV:   1    -0.186351046338E+04   -0.16297E-03   -0.10973E-02  1720   0.138E-01    0.393E-02
RMM:   2    -0.186351049149E+04   -0.28110E-04   -0.39772E-04  1080   0.234E-02
  81 F= -.18875439E+04 E0= -.18875439E+04  d E =-.236863E-03
quench:  g(F)=  0.000E+00 g(S)=  0.000E+00 dE (1.order)= 0.000E+00
 bond charge predicted
       N       E                     dE             d eps       ncg     rms          rms(c)
DAV:   1    -0.186351050614E+04   -0.42762E-04   -0.22179E-02  1656   0.197E-01    0.575E-02
RMM:   2    -0.186351053746E+04   -0.31313E-04   -0.61217E-04  1183   0.300E-02
  82 F= -.18875439E+04 E0= -.18875439E+04  d E =-.190303E-04
quench:  g(F)=  0.000E+00 g(S)=  0.000E+00 dE (1.order)= 0.000E+00
 bond charge predicted
       N       E                     dE             d eps       ncg     rms          rms(c)
DAV:   1    -0.186351055250E+04   -0.46361E-04   -0.42079E-04  1560   0.269E-02    0.153E-02
RMM:   2    -0.186351055251E+04   -0.79162E-08   -0.26365E-05   847   0.582E-03
  83 F= -.18875439E+04 E0= -.18875439E+04  d E =-.187575E-04
quench:  g(F)=  0.000E+00 g(S)=  0.000E+00 dE (1.order)= 0.000E+00
 bond charge predicted
       N       E                     dE             d eps       ncg     rms          rms(c)
DAV:   1    -0.186351059061E+04   -0.38101E-04   -0.11433E-03  1624   0.440E-02    0.110E-02
RMM:   2    -0.186351059372E+04   -0.31108E-05   -0.35483E-05   847   0.720E-03
  84 F= -.18875440E+04 E0= -.18875440E+04  d E =-.469774E-04
quench:  g(F)=  0.000E+00 g(S)=  0.000E+00 dE (1.order)= 0.000E+00
 bond charge predicted
       N       E                     dE             d eps       ncg     rms          rms(c)
DAV:   1    -0.186351060775E+04   -0.17142E-04   -0.18546E-03  1648   0.562E-02    0.141E-02
RMM:   2    -0.186351061095E+04   -0.32037E-05   -0.48215E-05   855   0.854E-03
  85 F= -.18875440E+04 E0= -.18875440E+04  d E =-.279002E-04
quench:  g(F)=  0.000E+00 g(S)=  0.000E+00 dE (1.order)= 0.000E+00
 bond charge predicted
       N       E                     dE             d eps       ncg     rms          rms(c)
DAV:   1    -0.186351060039E+04    0.73559E-05   -0.20271E-03  1600   0.585E-02    0.139E-02
RMM:   2    -0.186351060355E+04   -0.31619E-05   -0.50272E-05   858   0.878E-03
  86 F= -.18875440E+04 E0= -.18875440E+04  d E =-.295551E-05
quench:  g(F)=  0.000E+00 g(S)=  0.000E+00 dE (1.order)= 0.000E+00
 bond charge predicted
       N       E                     dE             d eps       ncg     rms          rms(c)
DAV:   1    -0.186351059043E+04    0.99602E-05   -0.19711E-03  1592   0.557E-02    0.120E-02
RMM:   2    -0.186351059336E+04   -0.29329E-05   -0.43364E-05   853   0.794E-03
  87 F= -.18875440E+04 E0= -.18875440E+04  d E =0.344608E-05
quench:  g(F)=  0.000E+00 g(S)=  0.000E+00 dE (1.order)= 0.000E+00
 bond charge predicted
       N       E                     dE             d eps       ncg     rms          rms(c)
DAV:   1    -0.186351060068E+04   -0.10248E-04   -0.21200E-03  1584   0.553E-02    0.105E-02
RMM:   2    -0.186351060393E+04   -0.32525E-05   -0.42620E-05   826   0.755E-03
  88 F= -.18875440E+04 E0= -.18875440E+04  d E =-.112006E-04
quench:  g(F)=  0.000E+00 g(S)=  0.000E+00 dE (1.order)= 0.000E+00
 bond charge predicted
       N       E                     dE             d eps       ncg     rms          rms(c)
DAV:   1    -0.186351063402E+04   -0.33341E-04   -0.32544E-03  1568   0.690E-02    0.128E-02
RMM:   2    -0.186351063922E+04   -0.51972E-05   -0.66172E-05   826   0.951E-03
  89 F= -.18875440E+04 E0= -.18875440E+04  d E =-.284737E-04
quench:  g(F)=  0.000E+00 g(S)=  0.000E+00 dE (1.order)= 0.000E+00
 bond charge predicted
       N       E                     dE             d eps       ncg     rms          rms(c)
DAV:   1    -0.186351067327E+04   -0.39248E-04   -0.52693E-03  1552   0.886E-02    0.184E-02
RMM:   2    -0.186351068106E+04   -0.77912E-05   -0.10729E-04   876   0.122E-02
  90 F= -.18875441E+04 E0= -.18875441E+04  d E =-.278462E-04
quench:  g(F)=  0.000E+00 g(S)=  0.000E+00 dE (1.order)= 0.000E+00
 bond charge predicted
       N       E                     dE             d eps       ncg     rms          rms(c)
DAV:   1    -0.186351069057E+04   -0.17299E-04   -0.72745E-03  1648   0.102E-01    0.217E-02
RMM:   2    -0.186351070077E+04   -0.10206E-04   -0.14394E-04   914   0.137E-02
  91 F= -.18875441E+04 E0= -.18875441E+04  d E =-.677863E-05
quench:  g(F)=  0.000E+00 g(S)=  0.000E+00 dE (1.order)= 0.000E+00
 bond charge predicted
       N       E                     dE             d eps       ncg     rms          rms(c)
DAV:   1    -0.186351069369E+04   -0.31210E-05   -0.92596E-03  1592   0.110E-01    0.221E-02
RMM:   2    -0.186351070684E+04   -0.13156E-04   -0.17213E-04   919   0.142E-02
  92 F= -.18875441E+04 E0= -.18875441E+04  d E =-.351966E-05
quench:  g(F)=  0.000E+00 g(S)=  0.000E+00 dE (1.order)= 0.000E+00
 bond charge predicted
       N       E                     dE             d eps       ncg     rms          rms(c)
DAV:   1    -0.186351069794E+04   -0.42521E-05   -0.12331E-02  1592   0.128E-01    0.257E-02
RMM:   2    -0.186351071605E+04   -0.18109E-04   -0.22850E-04   941   0.165E-02
  93 F= -.18875441E+04 E0= -.18875441E+04  d E =-.197974E-04
quench:  g(F)=  0.000E+00 g(S)=  0.000E+00 dE (1.order)= 0.000E+00
 bond charge predicted
       N       E                     dE             d eps       ncg     rms          rms(c)
DAV:   1    -0.186351069159E+04    0.63507E-05   -0.16182E-02  1648   0.147E-01    0.298E-02
RMM:   2    -0.186351071516E+04   -0.23568E-04   -0.30306E-04   977   0.190E-02
  94 F= -.18875441E+04 E0= -.18875441E+04  d E =-.166433E-04
quench:  g(F)=  0.000E+00 g(S)=  0.000E+00 dE (1.order)= 0.000E+00
 bond charge predicted
       N       E                     dE             d eps       ncg     rms          rms(c)
DAV:   1    -0.186351064906E+04    0.42529E-04   -0.20240E-02  1624   0.163E-01    0.322E-02
RMM:   2    -0.186351067834E+04   -0.29284E-04   -0.37456E-04  1014   0.207E-02
  95 F= -.18875441E+04 E0= -.18875441E+04  d E =0.129791E-04
quench:  g(F)=  0.000E+00 g(S)=  0.000E+00 dE (1.order)= 0.000E+00
 bond charge predicted
       N       E                     dE             d eps       ncg     rms          rms(c)
DAV:   1    -0.186351061657E+04    0.32489E-04   -0.23129E-02  1640   0.178E-01    0.367E-02
RMM:   2    -0.186351065153E+04   -0.34963E-04   -0.43585E-04  1047   0.228E-02
  96 F= -.18875441E+04 E0= -.18875441E+04  d E =-.216910E-04
quench:  g(F)=  0.000E+00 g(S)=  0.000E+00 dE (1.order)= 0.000E+00
 bond charge predicted
       N       E                     dE             d eps       ncg     rms          rms(c)
DAV:   1    -0.186351060022E+04    0.16352E-04   -0.28251E-02  1552   0.199E-01    0.414E-02
RMM:   2    -0.186351064229E+04   -0.42074E-04   -0.54027E-04  1101   0.259E-02
  97 F= -.18875442E+04 E0= -.18875442E+04  d E =-.370650E-04
quench:  g(F)=  0.000E+00 g(S)=  0.000E+00 dE (1.order)= 0.000E+00
 bond charge predicted
       N       E                     dE             d eps       ncg     rms          rms(c)
DAV:   1    -0.186351055594E+04    0.44278E-04   -0.37585E-02  1624   0.233E-01    0.498E-02
RMM:   2    -0.186351061530E+04   -0.59364E-04   -0.73291E-04  1191   0.306E-02
  98 F= -.18875442E+04 E0= -.18875442E+04  d E =-.614343E-04
quench:  g(F)=  0.000E+00 g(S)=  0.000E+00 dE (1.order)= 0.000E+00
 bond charge predicted
       N       E                     dE             d eps       ncg     rms          rms(c)
DAV:   1    -0.186351063854E+04   -0.82603E-04   -0.59851E-04  1600   0.326E-02    0.185E-02
RMM:   2    -0.186351063952E+04   -0.98049E-06   -0.22831E-05   831   0.588E-03
  99 F= -.18875443E+04 E0= -.18875443E+04  d E =-.275069E-04
quench:  g(F)=  0.000E+00 g(S)=  0.000E+00 dE (1.order)= 0.000E+00
 bond charge predicted
       N       E                     dE             d eps       ncg     rms          rms(c)
DAV:   1    -0.186351068106E+04   -0.42520E-04   -0.13726E-03  1600   0.494E-02    0.131E-02
RMM:   2    -0.186351068411E+04   -0.30434E-05   -0.38024E-05   837   0.775E-03
 100 F= -.18875443E+04 E0= -.18875443E+04  d E =-.405825E-04
quench:  g(F)=  0.000E+00 g(S)=  0.000E+00 dE (1.order)= 0.000E+00
 bond charge predicted
       N       E                     dE             d eps       ncg     rms          rms(c)
DAV:   1    -0.186351072131E+04   -0.40244E-04   -0.14855E-03  1576   0.512E-02    0.129E-02
RMM:   2    -0.186351072362E+04   -0.23120E-05   -0.38691E-05   853   0.786E-03
 101 F= -.18875443E+04 E0= -.18875443E+04  d E =-.270827E-04
quench:  g(F)=  0.000E+00 g(S)=  0.000E+00 dE (1.order)= 0.000E+00
 bond charge predicted
       N       E                     dE             d eps       ncg     rms          rms(c)
DAV:   1    -0.186351077110E+04   -0.49789E-04   -0.13731E-03  1576   0.483E-02    0.116E-02
RMM:   2    -0.186351077297E+04   -0.18717E-05   -0.32116E-05   852   0.712E-03
 102 F= -.18875444E+04 E0= -.18875444E+04  d E =-.313902E-04
quench:  g(F)=  0.000E+00 g(S)=  0.000E+00 dE (1.order)= 0.000E+00
 bond charge predicted
       N       E                     dE             d eps       ncg     rms          rms(c)
DAV:   1    -0.186351083700E+04   -0.65906E-04   -0.14037E-03  1592   0.477E-02    0.107E-02
RMM:   2    -0.186351083893E+04   -0.19311E-05   -0.31092E-05   843   0.694E-03
 103 F= -.18875444E+04 E0= -.18875444E+04  d E =-.433982E-04
quench:  g(F)=  0.000E+00 g(S)=  0.000E+00 dE (1.order)= 0.000E+00
 bond charge predicted
       N       E                     dE             d eps       ncg     rms          rms(c)
DAV:   1    -0.186351091405E+04   -0.77050E-04   -0.16331E-03  1584   0.512E-02    0.122E-02
RMM:   2    -0.186351091644E+04   -0.23837E-05   -0.36357E-05   836   0.753E-03
 104 F= -.18875445E+04 E0= -.18875445E+04  d E =-.548193E-04
quench:  g(F)=  0.000E+00 g(S)=  0.000E+00 dE (1.order)= 0.000E+00
 bond charge predicted
       N       E                     dE             d eps       ncg     rms          rms(c)
DAV:   1    -0.186351099104E+04   -0.76993E-04   -0.23808E-03  1584   0.624E-02    0.157E-02
RMM:   2    -0.186351099464E+04   -0.35973E-05   -0.53743E-05   853   0.918E-03
 105 F= -.18875445E+04 E0= -.18875445E+04  d E =-.556303E-04
quench:  g(F)=  0.000E+00 g(S)=  0.000E+00 dE (1.order)= 0.000E+00
 bond charge predicted
       N       E                     dE             d eps       ncg     rms          rms(c)
DAV:   1    -0.186351103966E+04   -0.48615E-04   -0.27498E-03  1600   0.667E-02    0.160E-02
RMM:   2    -0.186351104387E+04   -0.42065E-05   -0.59202E-05   856   0.961E-03
 106 F= -.18875446E+04 E0= -.18875446E+04  d E =-.543351E-04
quench:  g(F)=  0.000E+00 g(S)=  0.000E+00 dE (1.order)= 0.000E+00
 bond charge predicted
       N       E                     dE             d eps       ncg     rms          rms(c)
DAV:   1    -0.186351107358E+04   -0.33916E-04   -0.35643E-03  1616   0.755E-02    0.174E-02
RMM:   2    -0.186351107892E+04   -0.53485E-05   -0.72903E-05   875   0.106E-02
 107 F= -.18875446E+04 E0= -.18875446E+04  d E =-.572493E-04
quench:  g(F)=  0.000E+00 g(S)=  0.000E+00 dE (1.order)= 0.000E+00
 bond charge predicted
       N       E                     dE             d eps       ncg     rms          rms(c)
DAV:   1    -0.186351110936E+04   -0.35784E-04   -0.50312E-03  1664   0.890E-02    0.207E-02
RMM:   2    -0.186351111663E+04   -0.72695E-05   -0.10101E-04   888   0.123E-02
 108 F= -.18875447E+04 E0= -.18875447E+04  d E =-.596098E-04
quench:  g(F)=  0.000E+00 g(S)=  0.000E+00 dE (1.order)= 0.000E+00
 bond charge predicted
       N       E                     dE             d eps       ncg     rms          rms(c)
DAV:   1    -0.186351113665E+04   -0.27286E-04   -0.71950E-03  1648   0.106E-01    0.256E-02
RMM:   2    -0.186351114697E+04   -0.10320E-04   -0.14185E-04   918   0.144E-02
 109 F= -.18875447E+04 E0= -.18875447E+04  d E =-.524279E-04
quench:  g(F)=  0.000E+00 g(S)=  0.000E+00 dE (1.order)= 0.000E+00
 bond charge predicted
       N       E                     dE             d eps       ncg     rms          rms(c)
DAV:   1    -0.186351108431E+04    0.52336E-04   -0.95612E-03  1672   0.120E-01    0.282E-02
RMM:   2    -0.186351109844E+04   -0.14129E-04   -0.18549E-04   937   0.163E-02
 110 F= -.18875448E+04 E0= -.18875448E+04  d E =-.517871E-04
quench:  g(F)=  0.000E+00 g(S)=  0.000E+00 dE (1.order)= 0.000E+00
 bond charge predicted
       N       E                     dE             d eps       ncg     rms          rms(c)
DAV:   1    -0.186351095847E+04    0.12584E-03   -0.14327E-02  1568   0.148E-01    0.339E-02
RMM:   2    -0.186351098091E+04   -0.22442E-04   -0.28496E-04   994   0.201E-02
 111 F= -.18875448E+04 E0= -.18875448E+04  d E =-.440828E-04
quench:  g(F)=  0.000E+00 g(S)=  0.000E+00 dE (1.order)= 0.000E+00
 bond charge predicted
       N       E                     dE             d eps       ncg     rms          rms(c)
DAV:   1    -0.186351081236E+04    0.14611E-03   -0.21010E-02  1616   0.179E-01    0.386E-02
RMM:   2    -0.186351084533E+04   -0.32971E-04   -0.41431E-04  1046   0.240E-02
 112 F= -.18875449E+04 E0= -.18875449E+04  d E =-.344553E-04
quench:  g(F)=  0.000E+00 g(S)=  0.000E+00 dE (1.order)= 0.000E+00
 bond charge predicted
       N       E                     dE             d eps       ncg     rms          rms(c)
DAV:   1    -0.186351064424E+04    0.16812E-03   -0.29915E-02  1568   0.212E-01    0.483E-02
RMM:   2    -0.186351069176E+04   -0.47523E-04   -0.60555E-04  1157   0.288E-02
 113 F= -.18875449E+04 E0= -.18875449E+04  d E =-.374179E-05
quench:  g(F)=  0.000E+00 g(S)=  0.000E+00 dE (1.order)= 0.000E+00
 bond charge predicted
       N       E                     dE             d eps       ncg     rms          rms(c)
DAV:   1    -0.186351071853E+04   -0.74294E-04   -0.96490E-04  1568   0.409E-02    0.185E-02
RMM:   2    -0.186351072048E+04   -0.19502E-05   -0.32855E-05   841   0.704E-03
 114 F= -.18875449E+04 E0= -.18875449E+04  d E =-.216785E-04
quench:  g(F)=  0.000E+00 g(S)=  0.000E+00 dE (1.order)= 0.000E+00
 bond charge predicted
       N       E                     dE             d eps       ncg     rms          rms(c)
DAV:   1    -0.186351074478E+04   -0.26251E-04   -0.19571E-03  1608   0.592E-02    0.145E-02
RMM:   2    -0.186351074896E+04   -0.41736E-05   -0.51826E-05   850   0.916E-03
 115 F= -.18875449E+04 E0= -.18875449E+04  d E =-.152273E-04
quench:  g(F)=  0.000E+00 g(S)=  0.000E+00 dE (1.order)= 0.000E+00
 bond charge predicted
       N       E                     dE             d eps       ncg     rms          rms(c)
DAV:   1    -0.186351075206E+04   -0.72802E-05   -0.21057E-03  1592   0.608E-02    0.143E-02
RMM:   2    -0.186351075547E+04   -0.34072E-05   -0.51756E-05   860   0.914E-03
 116 F= -.18875449E+04 E0= -.18875449E+04  d E =0.146431E-04
quench:  g(F)=  0.000E+00 g(S)=  0.000E+00 dE (1.order)= 0.000E+00
 bond charge predicted
       N       E                     dE             d eps       ncg     rms          rms(c)
DAV:   1    -0.186351075792E+04   -0.58553E-05   -0.50793E-05  1080   0.974E-03    0.474E-03
RMM:   2    -0.186351075807E+04   -0.15181E-06   -0.30637E-06   565   0.298E-03
 117 F= -.18875449E+04 E0= -.18875449E+04  d E =-.535384E-05
quench:  g(F)=  0.000E+00 g(S)=  0.000E+00 dE (1.order)= 0.000E+00
 bond charge predicted
       N       E                     dE             d eps       ncg     rms          rms(c)
DAV:   1    -0.186351075943E+04   -0.15145E-05   -0.13996E-04  1168   0.160E-02    0.363E-03
RMM:   2    -0.186351076014E+04   -0.70910E-06   -0.70867E-06   694   0.403E-03
 118 F= -.18875449E+04 E0= -.18875449E+04  d E =-.710381E-05
quench:  g(F)=  0.000E+00 g(S)=  0.000E+00 dE (1.order)= 0.000E+00
 bond charge predicted
       N       E                     dE             d eps       ncg     rms          rms(c)
DAV:   1    -0.186351075622E+04    0.32180E-05   -0.21869E-04  1352   0.196E-02    0.453E-03
RMM:   2    -0.186351075674E+04   -0.52757E-06   -0.69411E-06   532   0.392E-03
 119 F= -.18875449E+04 E0= -.18875449E+04  d E =-.309115E-05
quench:  g(F)=  0.000E+00 g(S)=  0.000E+00 dE (1.order)= 0.000E+00
 bond charge predicted
       N       E                     dE             d eps       ncg     rms          rms(c)
DAV:   1    -0.186351074806E+04    0.81605E-05   -0.25784E-04  1400   0.212E-02    0.484E-03
RMM:   2    -0.186351074851E+04   -0.45526E-06   -0.70888E-06   527   0.396E-03
 120 F= -.18875449E+04 E0= -.18875449E+04  d E =0.339230E-05
quench:  g(F)=  0.000E+00 g(S)=  0.000E+00 dE (1.order)= 0.000E+00
 bond charge predicted
       N       E                     dE             d eps       ncg     rms          rms(c)
DAV:   1    -0.186351073504E+04    0.13013E-04   -0.28148E-04  1464   0.217E-02    0.473E-03
RMM:   2    -0.186351073546E+04   -0.41314E-06   -0.68513E-06   536   0.379E-03
 121 F= -.18875449E+04 E0= -.18875449E+04  d E =0.860176E-05
quench:  g(F)=  0.000E+00 g(S)=  0.000E+00 dE (1.order)= 0.000E+00
 bond charge predicted
       N       E                     dE             d eps       ncg     rms          rms(c)
DAV:   1    -0.186351071779E+04    0.17249E-04   -0.32659E-04  1440   0.226E-02    0.471E-03
RMM:   2    -0.186351071823E+04   -0.43976E-06   -0.72108E-06   533   0.378E-03
 122 F= -.18875449E+04 E0= -.18875449E+04  d E =0.122146E-04
quench:  g(F)=  0.000E+00 g(S)=  0.000E+00 dE (1.order)= 0.000E+00
 bond charge predicted
       N       E                     dE             d eps       ncg     rms          rms(c)
DAV:   1    -0.186351069008E+04    0.27716E-04   -0.50524E-04  1464   0.269E-02    0.512E-03
RMM:   2    -0.186351069084E+04   -0.76128E-06   -0.10164E-05   573   0.417E-03
 123 F= -.18875449E+04 E0= -.18875449E+04  d E =0.167887E-04
quench:  g(F)=  0.000E+00 g(S)=  0.000E+00 dE (1.order)= 0.000E+00
 bond charge predicted
       N       E                     dE             d eps       ncg     rms          rms(c)
DAV:   1    -0.186351065299E+04    0.37091E-04   -0.88262E-04  1456   0.352E-02    0.659E-03
RMM:   2    -0.186351065438E+04   -0.13945E-05   -0.16874E-05   642   0.498E-03
 124 F= -.18875448E+04 E0= -.18875448E+04  d E =0.193579E-04
quench:  g(F)=  0.000E+00 g(S)=  0.000E+00 dE (1.order)= 0.000E+00
 bond charge predicted
       N       E                     dE             d eps       ncg     rms          rms(c)
DAV:   1    -0.186351060132E+04    0.51670E-04   -0.15236E-03  1512   0.463E-02    0.878E-03
RMM:   2    -0.186351060376E+04   -0.24418E-05   -0.29770E-05   743   0.643E-03
 125 F= -.18875448E+04 E0= -.18875448E+04  d E =0.284727E-04
quench:  g(F)=  0.000E+00 g(S)=  0.000E+00 dE (1.order)= 0.000E+00
 bond charge predicted
       N       E                     dE             d eps       ncg     rms          rms(c)
DAV:   1    -0.186351052878E+04    0.72533E-04   -0.23586E-03  1528   0.563E-02    0.109E-02
RMM:   2    -0.186351053240E+04   -0.36188E-05   -0.44733E-05   806   0.761E-03
 126 F= -.18875448E+04 E0= -.18875448E+04  d E =0.422956E-04
quench:  g(F)=  0.000E+00 g(S)=  0.000E+00 dE (1.order)= 0.000E+00
 bond charge predicted
       N       E                     dE             d eps       ncg     rms          rms(c)
DAV:   1    -0.186351043872E+04    0.90068E-04   -0.35960E-03  1568   0.685E-02    0.131E-02
RMM:   2    -0.186351044390E+04   -0.51836E-05   -0.65442E-05   842   0.899E-03
 127 F= -.18875447E+04 E0= -.18875447E+04  d E =0.520958E-04
quench:  g(F)=  0.000E+00 g(S)=  0.000E+00 dE (1.order)= 0.000E+00
 bond charge predicted
       N       E                     dE             d eps       ncg     rms          rms(c)
DAV:   1    -0.186351031973E+04    0.11899E-03   -0.53189E-03  1608   0.828E-02    0.157E-02
RMM:   2    -0.186351032740E+04   -0.76698E-05   -0.95285E-05   861   0.107E-02
 128 F= -.18875447E+04 E0= -.18875447E+04  d E =0.644555E-04
quench:  g(F)=  0.000E+00 g(S)=  0.000E+00 dE (1.order)= 0.000E+00
 bond charge predicted
       N       E                     dE             d eps       ncg     rms          rms(c)
DAV:   1    -0.186351015875E+04    0.16098E-03   -0.73666E-03  1560   0.977E-02    0.191E-02
RMM:   2    -0.186351016962E+04   -0.10866E-04   -0.13531E-04   890   0.127E-02
 129 F= -.18875446E+04 E0= -.18875446E+04  d E =0.850845E-04
quench:  g(F)=  0.000E+00 g(S)=  0.000E+00 dE (1.order)= 0.000E+00
 bond charge predicted
       N       E                     dE             d eps       ncg     rms          rms(c)
DAV:   1    -0.186350996841E+04    0.19034E-03   -0.93156E-03  1568   0.111E-01    0.232E-02
RMM:   2    -0.186350998166E+04   -0.13251E-04   -0.17015E-04   916   0.144E-02
 130 F= -.18875445E+04 E0= -.18875445E+04  d E =0.100813E-03
quench:  g(F)=  0.000E+00 g(S)=  0.000E+00 dE (1.order)= 0.000E+00
 bond charge predicted
       N       E                     dE             d eps       ncg     rms          rms(c)
DAV:   1    -0.186350976688E+04    0.20153E-03   -0.11127E-02  1552   0.121E-01    0.259E-02
RMM:   2    -0.186350978217E+04   -0.15290E-04   -0.20072E-04   940   0.157E-02
 131 F= -.18875444E+04 E0= -.18875444E+04  d E =0.103572E-03
quench:  g(F)=  0.000E+00 g(S)=  0.000E+00 dE (1.order)= 0.000E+00
 bond charge predicted
       N       E                     dE             d eps       ncg     rms          rms(c)
DAV:   1    -0.186350952078E+04    0.24610E-03   -0.12419E-02  1584   0.130E-01    0.290E-02
RMM:   2    -0.186350953832E+04   -0.17541E-04   -0.22798E-04   951   0.171E-02
 132 F= -.18875443E+04 E0= -.18875443E+04  d E =0.957939E-04
quench:  g(F)=  0.000E+00 g(S)=  0.000E+00 dE (1.order)= 0.000E+00
 bond charge predicted
       N       E                     dE             d eps       ncg     rms          rms(c)
DAV:   1    -0.186350954047E+04   -0.19693E-04   -0.11345E-04  1128   0.146E-02    0.977E-03
RMM:   2    -0.186350954111E+04   -0.63353E-06   -0.88353E-06   750   0.434E-03
 133 F= -.18875443E+04 E0= -.18875443E+04  d E =-.110510E-04
quench:  g(F)=  0.000E+00 g(S)=  0.000E+00 dE (1.order)= 0.000E+00
 bond charge predicted
       N       E                     dE             d eps       ncg     rms          rms(c)
DAV:   1    -0.186350954515E+04   -0.46749E-05   -0.29650E-04  1472   0.229E-02    0.524E-03
RMM:   2    -0.186350954571E+04   -0.56151E-06   -0.69392E-06   524   0.389E-03
 134 F= -.18875443E+04 E0= -.18875443E+04  d E =-.187457E-04
quench:  g(F)=  0.000E+00 g(S)=  0.000E+00 dE (1.order)= 0.000E+00
 bond charge predicted
       N       E                     dE             d eps       ncg     rms          rms(c)
DAV:   1    -0.186350955187E+04   -0.67267E-05   -0.44972E-04  1496   0.277E-02    0.570E-03
RMM:   2    -0.186350955261E+04   -0.73903E-06   -0.10450E-05   646   0.431E-03
 135 F= -.18875443E+04 E0= -.18875443E+04  d E =-.212321E-04
quench:  g(F)=  0.000E+00 g(S)=  0.000E+00 dE (1.order)= 0.000E+00
 bond charge predicted
       N       E                     dE             d eps       ncg     rms          rms(c)
DAV:   1    -0.186350957414E+04   -0.22261E-04   -0.56902E-04  1544   0.297E-02    0.607E-03
RMM:   2    -0.186350957494E+04   -0.80079E-06   -0.11727E-05   618   0.444E-03
 136 F= -.18875444E+04 E0= -.18875444E+04  d E =-.300426E-04
quench:  g(F)=  0.000E+00 g(S)=  0.000E+00 dE (1.order)= 0.000E+00
 bond charge predicted
       N       E                     dE             d eps       ncg     rms          rms(c)
DAV:   1    -0.186350961910E+04   -0.44968E-04   -0.92109E-04  1552   0.356E-02    0.683E-03
RMM:   2    -0.186350962043E+04   -0.13275E-05   -0.17707E-05   642   0.501E-03
 137 F= -.18875444E+04 E0= -.18875444E+04  d E =-.472715E-04
quench:  g(F)=  0.000E+00 g(S)=  0.000E+00 dE (1.order)= 0.000E+00
 bond charge predicted
       N       E                     dE             d eps       ncg     rms          rms(c)
DAV:   1    -0.186350969555E+04   -0.76448E-04   -0.17007E-03  1520   0.470E-02    0.924E-03
RMM:   2    -0.186350969801E+04   -0.24551E-05   -0.32127E-05   727   0.639E-03
 138 F= -.18875445E+04 E0= -.18875445E+04  d E =-.683069E-04
quench:  g(F)=  0.000E+00 g(S)=  0.000E+00 dE (1.order)= 0.000E+00
 bond charge predicted
       N       E                     dE             d eps       ncg     rms          rms(c)
DAV:   1    -0.186350981080E+04   -0.11525E-03   -0.34563E-03  1472   0.663E-02    0.133E-02
RMM:   2    -0.186350981585E+04   -0.50433E-05   -0.66033E-05   845   0.892E-03
 139 F= -.18875446E+04 E0= -.18875446E+04  d E =-.965659E-04
quench:  g(F)=  0.000E+00 g(S)=  0.000E+00 dE (1.order)= 0.000E+00
 bond charge predicted
       N       E                     dE             d eps       ncg     rms          rms(c)
DAV:   1    -0.186350996124E+04   -0.15044E-03   -0.62666E-03  1560   0.887E-02    0.183E-02
RMM:   2    -0.186350996998E+04   -0.87423E-05   -0.11623E-04   898   0.116E-02
 140 F= -.18875447E+04 E0= -.18875447E+04  d E =-.117690E-03
quench:  g(F)=  0.000E+00 g(S)=  0.000E+00 dE (1.order)= 0.000E+00
 bond charge predicted
       N       E                     dE             d eps       ncg     rms          rms(c)
DAV:   1    -0.186351013189E+04   -0.17065E-03   -0.10019E-02  1600   0.111E-01    0.238E-02
RMM:   2    -0.186351014541E+04   -0.13515E-04   -0.18274E-04   935   0.142E-02
 141 F= -.18875448E+04 E0= -.18875448E+04  d E =-.142783E-03
quench:  g(F)=  0.000E+00 g(S)=  0.000E+00 dE (1.order)= 0.000E+00
 bond charge predicted
       N       E                     dE             d eps       ncg     rms          rms(c)
DAV:   1    -0.186351031549E+04   -0.18360E-03   -0.15069E-02  1568   0.136E-01    0.297E-02
RMM:   2    -0.186351033539E+04   -0.19895E-04   -0.26928E-04   978   0.170E-02
 142 F= -.18875450E+04 E0= -.18875450E+04  d E =-.170497E-03
quench:  g(F)=  0.000E+00 g(S)=  0.000E+00 dE (1.order)= 0.000E+00
 bond charge predicted
       N       E                     dE             d eps       ncg     rms          rms(c)
DAV:   1    -0.186351048948E+04   -0.17398E-03   -0.20231E-02  1600   0.157E-01    0.346E-02
RMM:   2    -0.186351051671E+04   -0.27234E-04   -0.36265E-04  1014   0.197E-02
 143 F= -.18875452E+04 E0= -.18875452E+04  d E =-.183974E-03
quench:  g(F)=  0.000E+00 g(S)=  0.000E+00 dE (1.order)= 0.000E+00
 bond charge predicted
       N       E                     dE             d eps       ncg     rms          rms(c)
DAV:   1    -0.186351068734E+04   -0.19787E-03   -0.24327E-02  1552   0.171E-01    0.383E-02
RMM:   2    -0.186351072098E+04   -0.33633E-04   -0.44314E-04  1043   0.218E-02
 144 F= -.18875454E+04 E0= -.18875454E+04  d E =-.206283E-03
quench:  g(F)=  0.000E+00 g(S)=  0.000E+00 dE (1.order)= 0.000E+00
 bond charge predicted
       N       E                     dE             d eps       ncg     rms          rms(c)
DAV:   1    -0.186351087492E+04   -0.18757E-03   -0.27725E-02  1552   0.186E-01    0.419E-02
RMM:   2    -0.186351091352E+04   -0.38603E-04   -0.51089E-04  1074   0.241E-02
 145 F= -.18875456E+04 E0= -.18875456E+04  d E =-.210609E-03
quench:  g(F)=  0.000E+00 g(S)=  0.000E+00 dE (1.order)= 0.000E+00
 bond charge predicted
       N       E                     dE             d eps       ncg     rms          rms(c)
DAV:   1    -0.186351091285E+04   -0.37933E-04   -0.17166E-04  1232   0.176E-02    0.162E-02
RMM:   2    -0.186351091325E+04   -0.39893E-06   -0.12519E-05   761   0.493E-03
