 running on   64 total cores
 each image running on    8 cores
 distrk:  each k-point on    8 cores,    1 groups
 distr:  one band on    4 cores,    2 groups
 vasp.5.4.4.18Apr17-6-g9f103f2a35 (build Oct 20 2021 08:39:34) gamma-only        
 POSCAR found type information on POSCAR  C  H  O  Si W 
 01/POSCAR found :  5 types and     276 ions
 scaLAPACK will be used

 ----------------------------------------------------------------------------- 
|                                                                             |
|  ADVICE TO THIS USER RUNNING 'VASP/VAMP'   (HEAR YOUR MASTER'S VOICE ...):  |
|                                                                             |
|      You enforced a specific xc-type in the INCAR file,                     |
|      a different type was found on the POTCAR file                          |
|          I HOPE YOU KNOW, WHAT YOU ARE  DOING                               |
|                                                                             |
 ----------------------------------------------------------------------------- 

 LDA part: xc-table for Pade appr. of Perdew
 POSCAR found type information on POSCAR  C  H  O  Si W 
 00/POSCAR found :  5 types and     276 ions
 POSCAR found type information on POSCAR  C  H  O  Si W 
 09/POSCAR found :  5 types and     276 ions
 Jacobian:    57.435951621747570     
 POSCAR, INCAR and KPOINTS ok, starting setup
 FFT: planning ...
 WAVECAR not read
 entering main loop
       N       E                     dE             d eps       ncg     rms          rms(c)
DAV:   1     0.147519181171E+05    0.14752E+05   -0.55694E+05  1712   0.131E+03
DAV:   2     0.934682532490E+03   -0.13817E+05   -0.13380E+05  2144   0.321E+02
DAV:   3    -0.199560513858E+04   -0.29303E+04   -0.29200E+04  1784   0.162E+02
DAV:   4    -0.211302635951E+04   -0.11742E+03   -0.11690E+03  1776   0.377E+01
DAV:   5    -0.211646277424E+04   -0.34364E+01   -0.34315E+01  1920   0.573E+00    0.130E+02
RMM:   6    -0.186622646421E+04    0.25024E+03   -0.11091E+03  1537   0.330E+01    0.532E+01
RMM:   7    -0.186486802753E+04    0.13584E+01   -0.58110E+01  1536   0.660E+00    0.286E+01
RMM:   8    -0.186474114947E+04    0.12688E+00   -0.14312E+01  1536   0.364E+00    0.122E+01
RMM:   9    -0.186315492109E+04    0.15862E+01   -0.46624E+00  1536   0.199E+00    0.269E+00
RMM:  10    -0.186292213964E+04    0.23278E+00   -0.64781E-01  1536   0.778E-01    0.140E+00
RMM:  11    -0.186279656238E+04    0.12558E+00   -0.23576E-01  1536   0.469E-01    0.860E-01
RMM:  12    -0.186274889056E+04    0.47672E-01   -0.67923E-02  1536   0.245E-01    0.252E-01
RMM:  13    -0.186273318881E+04    0.15702E-01   -0.26108E-02  1541   0.147E-01    0.284E-01
RMM:  14    -0.186273029169E+04    0.28971E-02   -0.22852E-02  1537   0.131E-01    0.145E-01
RMM:  15    -0.186273684223E+04   -0.65505E-02   -0.80892E-03  1512   0.698E-02    0.719E-02
RMM:  16    -0.186274570772E+04   -0.88655E-02   -0.47915E-03  1451   0.520E-02    0.367E-02
RMM:  17    -0.186275204609E+04   -0.63384E-02   -0.10959E-03  1313   0.268E-02    0.249E-02
RMM:  18    -0.186275599426E+04   -0.39482E-02   -0.43896E-04  1191   0.164E-02    0.222E-02
RMM:  19    -0.186275820492E+04   -0.22107E-02   -0.25833E-04  1003   0.119E-02    0.909E-03
RMM:  20    -0.186275876834E+04   -0.56342E-03   -0.74892E-05   799   0.662E-03    0.535E-03
RMM:  21    -0.186275906358E+04   -0.29525E-03   -0.28777E-05   817   0.463E-03    0.283E-03
RMM:  22    -0.186275919373E+04   -0.13015E-03   -0.10807E-05   581   0.298E-03    0.177E-03
RMM:  23    -0.186275927259E+04   -0.78860E-04   -0.44899E-06   476   0.251E-03
   1 F= -.18867740E+04 E0= -.18867740E+04  d E =-.188677E+04
quench:  g(F)=  0.869E+00 g(S)=  0.000E+00 dE (1.order)=-0.174E+01
 bond charge predicted
       N       E                     dE             d eps       ncg     rms          rms(c)
DAV:   1    -0.186286647059E+04   -0.10728E+00   -0.71362E-01  1592   0.609E-01    0.179E-01
RMM:   2    -0.186286740256E+04   -0.93197E-03   -0.13154E-02  1428   0.786E-02    0.152E-01
RMM:   3    -0.186286728679E+04    0.11577E-03   -0.68048E-04   983   0.147E-02    0.107E-01
RMM:   4    -0.186286725039E+04    0.36396E-04   -0.57201E-04   967   0.133E-02
   2 F= -.18868823E+04 E0= -.18868823E+04  d E =-.108280E+00
quench:  g(F)=  0.632E+00 g(S)=  0.000E+00 dE (1.order)=-0.273E+01
 bond charge predicted
       N       E                     dE             d eps       ncg     rms          rms(c)
DAV:   1    -0.186303321228E+04   -0.16593E+00   -0.25837E+00  1632   0.116E+00    0.342E-01
RMM:   2    -0.186303637476E+04   -0.31625E-02   -0.45836E-02  1520   0.150E-01    0.290E-01
RMM:   3    -0.186303598461E+04    0.39015E-03   -0.24719E-03  1083   0.264E-02    0.207E-01
RMM:   4    -0.186303582834E+04    0.15627E-03   -0.20027E-03  1106   0.241E-02    0.458E-02
RMM:   5    -0.186303579585E+04    0.32493E-04   -0.11224E-04   813   0.829E-03
   3 F= -.18870515E+04 E0= -.18870515E+04  d E =-.169200E+00
quench:  g(F)=  0.368E+00 g(S)=  0.000E+00 dE (1.order)=-0.274E+01
 bond charge predicted
       N       E                     dE             d eps       ncg     rms          rms(c)
DAV:   1    -0.186319285935E+04   -0.15703E+00   -0.47741E+00  1640   0.158E+00    0.460E-01
RMM:   2    -0.186319839867E+04   -0.55393E-02   -0.83771E-02  1531   0.205E-01    0.393E-01
RMM:   3    -0.186319762989E+04    0.76878E-03   -0.47157E-03  1152   0.355E-02    0.283E-01
RMM:   4    -0.186319730090E+04    0.32899E-03   -0.39365E-03  1177   0.328E-02    0.649E-02
RMM:   5    -0.186319724686E+04    0.54041E-04   -0.20400E-04   910   0.107E-02
   4 F= -.18872139E+04 E0= -.18872139E+04  d E =-.162356E+00
quench:  g(F)=  0.196E+00 g(S)=  0.000E+00 dE (1.order)=-0.227E+01
 bond charge predicted
       N       E                     dE             d eps       ncg     rms          rms(c)
DAV:   1    -0.186329820185E+04   -0.10090E+00   -0.54999E+00  1600   0.180E+00    0.481E-01
RMM:   2    -0.186330550873E+04   -0.73069E-02   -0.10228E-01  1532   0.231E-01    0.396E-01
RMM:   3    -0.186330449889E+04    0.10098E-02   -0.58253E-03  1196   0.401E-02    0.272E-01
RMM:   4    -0.186330418973E+04    0.30916E-03   -0.39351E-03  1203   0.337E-02    0.734E-02
RMM:   5    -0.186330415421E+04    0.35519E-04   -0.20330E-04   934   0.108E-02
   5 F= -.18873210E+04 E0= -.18873210E+04  d E =-.107110E+00
quench:  g(F)=  0.100E+00 g(S)=  0.000E+00 dE (1.order)=-0.170E+01
 bond charge predicted
       N       E                     dE             d eps       ncg     rms          rms(c)
DAV:   1    -0.186336244785E+04   -0.58258E-01   -0.28611E+00  1584   0.156E+00    0.368E-01
RMM:   2    -0.186336599377E+04   -0.35459E-02   -0.46993E-02  1533   0.194E-01    0.235E-01
RMM:   3    -0.186336554456E+04    0.44921E-03   -0.25418E-03  1202   0.333E-02    0.139E-01
RMM:   4    -0.186336552133E+04    0.23225E-04   -0.11762E-03  1140   0.245E-02    0.329E-02
RMM:   5    -0.186336551580E+04    0.55314E-05   -0.51041E-05   891   0.699E-03
   6 F= -.18873803E+04 E0= -.18873803E+04  d E =-.593045E-01
quench:  g(F)=  0.551E-01 g(S)=  0.000E+00 dE (1.order)=-0.127E+01
 bond charge predicted
       N       E                     dE             d eps       ncg     rms          rms(c)
DAV:   1    -0.186340396505E+04   -0.38444E-01   -0.22868E+00  1584   0.155E+00    0.327E-01
RMM:   2    -0.186340697431E+04   -0.30093E-02   -0.40738E-02  1533   0.200E-01    0.224E-01
RMM:   3    -0.186340664622E+04    0.32809E-03   -0.17105E-03  1209   0.323E-02    0.158E-01
RMM:   4    -0.186340658448E+04    0.61738E-04   -0.11441E-03  1231   0.263E-02    0.426E-02
RMM:   5    -0.186340658649E+04   -0.20093E-05   -0.99255E-05   909   0.898E-03
   7 F= -.18874189E+04 E0= -.18874189E+04  d E =-.386324E-01
quench:  g(F)=  0.349E-01 g(S)=  0.000E+00 dE (1.order)=-0.945E+00
 bond charge predicted
       N       E                     dE             d eps       ncg     rms          rms(c)
DAV:   1    -0.186342480857E+04   -0.18224E-01   -0.14723E+00  1600   0.135E+00    0.358E-01
RMM:   2    -0.186342716089E+04   -0.23523E-02   -0.32779E-02  1534   0.193E-01    0.243E-01
RMM:   3    -0.186342675879E+04    0.40211E-03   -0.14285E-03  1287   0.340E-02    0.142E-01
RMM:   4    -0.186342669323E+04    0.65556E-04   -0.84314E-04  1248   0.256E-02
   8 F= -.18874374E+04 E0= -.18874374E+04  d E =-.184916E-01
quench:  g(F)=  0.444E-01 g(S)=  0.000E+00 dE (1.order)=-0.536E+00
 bond charge predicted
       N       E                     dE             d eps       ncg     rms          rms(c)
DAV:   1    -0.186343549592E+04   -0.87371E-02   -0.23958E-01  1648   0.517E-01    0.151E-01
RMM:   2    -0.186343587324E+04   -0.37732E-03   -0.58914E-03  1501   0.801E-02    0.135E-01
RMM:   3    -0.186343579686E+04    0.76376E-04   -0.20276E-04   933   0.131E-02
   9 F= -.18874463E+04 E0= -.18874463E+04  d E =-.885513E-02
quench:  g(F)=  0.762E-01 g(S)=  0.000E+00 dE (1.order)=-0.161E+00
 bond charge predicted
       N       E                     dE             d eps       ncg     rms          rms(c)
DAV:   1    -0.186344227214E+04   -0.63989E-02   -0.16142E-01  1648   0.440E-01    0.114E-01
RMM:   2    -0.186344248027E+04   -0.20813E-03   -0.29981E-03  1485   0.574E-02    0.722E-02
RMM:   3    -0.186344245046E+04    0.29813E-04   -0.14767E-04   923   0.105E-02
  10 F= -.18874525E+04 E0= -.18874525E+04  d E =-.626983E-02
quench:  g(F)=  0.492E-01 g(S)=  0.000E+00 dE (1.order)=-0.211E+00
 bond charge predicted
       N       E                     dE             d eps       ncg     rms          rms(c)
DAV:   1    -0.186344918300E+04   -0.67027E-02   -0.17292E-01  1672   0.486E-01    0.972E-02
RMM:   2    -0.186344944942E+04   -0.26642E-03   -0.31904E-03  1496   0.623E-02    0.565E-02
RMM:   3    -0.186344943016E+04    0.19263E-04   -0.97672E-05   914   0.100E-02
  11 F= -.18874590E+04 E0= -.18874590E+04  d E =-.648805E-02
quench:  g(F)=  0.250E-01 g(S)=  0.000E+00 dE (1.order)=-0.192E+00
 bond charge predicted
       N       E                     dE             d eps       ncg     rms          rms(c)
DAV:   1    -0.186345640859E+04   -0.69592E-02   -0.23517E-01  1584   0.570E-01    0.106E-01
RMM:   2    -0.186345677967E+04   -0.37108E-03   -0.43831E-03  1520   0.730E-02    0.665E-02
RMM:   3    -0.186345675728E+04    0.22394E-04   -0.12651E-04   922   0.113E-02
  12 F= -.18874658E+04 E0= -.18874658E+04  d E =-.679352E-02
quench:  g(F)=  0.193E-01 g(S)=  0.000E+00 dE (1.order)=-0.184E+00
 bond charge predicted
       N       E                     dE             d eps       ncg     rms          rms(c)
DAV:   1    -0.186346332130E+04   -0.65416E-02   -0.30492E-01  1568   0.655E-01    0.123E-01
RMM:   2    -0.186346380361E+04   -0.48231E-03   -0.56757E-03  1525   0.839E-02    0.714E-02
RMM:   3    -0.186346376748E+04    0.36129E-04   -0.16757E-04   929   0.132E-02
  13 F= -.18874724E+04 E0= -.18874724E+04  d E =-.658243E-02
quench:  g(F)=  0.183E-01 g(S)=  0.000E+00 dE (1.order)=-0.211E+00
 bond charge predicted
       N       E                     dE             d eps       ncg     rms          rms(c)
DAV:   1    -0.186346947994E+04   -0.56763E-02   -0.35988E-01  1568   0.731E-01    0.142E-01
RMM:   2    -0.186347008757E+04   -0.60763E-03   -0.74509E-03  1530   0.998E-02    0.107E-01
RMM:   3    -0.186347003242E+04    0.55154E-04   -0.21108E-04   941   0.155E-02
  14 F= -.18874782E+04 E0= -.18874782E+04  d E =-.580583E-02
quench:  g(F)=  0.173E-01 g(S)=  0.000E+00 dE (1.order)=-0.236E+00
 bond charge predicted
       N       E                     dE             d eps       ncg     rms          rms(c)
DAV:   1    -0.186347331339E+04   -0.32258E-02   -0.36817E-01  1616   0.755E-01    0.174E-01
RMM:   2    -0.186347402009E+04   -0.70671E-03   -0.92794E-03  1530   0.113E-01    0.145E-01
RMM:   3    -0.186347390168E+04    0.11841E-03   -0.24265E-04   965   0.174E-02    0.111E-01
RMM:   4    -0.186347386627E+04    0.35417E-04   -0.28225E-04  1014   0.163E-02
  15 F= -.18874819E+04 E0= -.18874819E+04  d E =-.366978E-02
quench:  g(F)=  0.162E-01 g(S)=  0.000E+00 dE (1.order)=-0.253E+00
 bond charge predicted
       N       E                     dE             d eps       ncg     rms          rms(c)
DAV:   1    -0.186347623419E+04   -0.23325E-02   -0.98748E-02  1696   0.388E-01    0.112E-01
RMM:   2    -0.186347643368E+04   -0.19949E-03   -0.30015E-03  1487   0.636E-02    0.104E-01
RMM:   3    -0.186347639011E+04    0.43571E-04   -0.69345E-05   909   0.982E-03
  16 F= -.18874842E+04 E0= -.18874842E+04  d E =-.230946E-02
quench:  g(F)=  0.146E-01 g(S)=  0.000E+00 dE (1.order)=-0.263E+00
 bond charge predicted
       N       E                     dE             d eps       ncg     rms          rms(c)
DAV:   1    -0.186347800094E+04   -0.15673E-02   -0.40422E-02  1704   0.242E-01    0.535E-02
RMM:   2    -0.186347806369E+04   -0.62745E-04   -0.78607E-04  1268   0.317E-02
  17 F= -.18874857E+04 E0= -.18874857E+04  d E =-.156256E-02
quench:  g(F)=  0.139E-01 g(S)=  0.000E+00 dE (1.order)=-0.258E+00
 bond charge predicted
       N       E                     dE             d eps       ncg     rms          rms(c)
DAV:   1    -0.186347982853E+04   -0.18276E-02   -0.57263E-02  1656   0.285E-01    0.642E-02
RMM:   2    -0.186347991281E+04   -0.84286E-04   -0.10932E-03  1359   0.374E-02    0.383E-02
RMM:   3    -0.186347990374E+04    0.90691E-05   -0.45021E-05   904   0.722E-03
  18 F= -.18874874E+04 E0= -.18874874E+04  d E =-.168489E-02
quench:  g(F)=  0.175E-01 g(S)=  0.000E+00 dE (1.order)=-0.196E+00
 bond charge predicted
       N       E                     dE             d eps       ncg     rms          rms(c)
DAV:   1    -0.186348183439E+04   -0.19216E-02   -0.79031E-02  1568   0.341E-01    0.633E-02
RMM:   2    -0.186348196251E+04   -0.12813E-03   -0.15000E-03  1458   0.443E-02    0.345E-02
RMM:   3    -0.186348195375E+04    0.87604E-05   -0.43957E-05   894   0.725E-03
  19 F= -.18874893E+04 E0= -.18874893E+04  d E =-.182260E-02
quench:  g(F)=  0.165E-01 g(S)=  0.000E+00 dE (1.order)=-0.886E-01
 bond charge predicted
       N       E                     dE             d eps       ncg     rms          rms(c)
DAV:   1    -0.186348392050E+04   -0.19580E-02   -0.10550E-01  1568   0.396E-01    0.715E-02
RMM:   2    -0.186348409385E+04   -0.17335E-03   -0.20171E-03  1481   0.513E-02    0.394E-02
RMM:   3    -0.186348408114E+04    0.12711E-04   -0.56275E-05   904   0.813E-03
  20 F= -.18874912E+04 E0= -.18874912E+04  d E =-.196464E-02
quench:  g(F)=  0.103E-01 g(S)=  0.000E+00 dE (1.order)=-0.796E-01
 bond charge predicted
       N       E                     dE             d eps       ncg     rms          rms(c)
DAV:   1    -0.186348604501E+04   -0.19512E-02   -0.13654E-01  1552   0.460E-01    0.848E-02
RMM:   2    -0.186348627935E+04   -0.23434E-03   -0.27300E-03  1511   0.608E-02    0.428E-02
RMM:   3    -0.186348625956E+04    0.19785E-04   -0.73086E-05   909   0.938E-03
  21 F= -.18874932E+04 E0= -.18874932E+04  d E =-.199843E-02
quench:  g(F)=  0.944E-02 g(S)=  0.000E+00 dE (1.order)=-0.925E-01
 bond charge predicted
       N       E                     dE             d eps       ncg     rms          rms(c)
DAV:   1    -0.186348793088E+04   -0.16515E-02   -0.14888E-01  1552   0.490E-01    0.101E-01
RMM:   2    -0.186348820088E+04   -0.27000E-03   -0.33085E-03  1517   0.679E-02    0.480E-02
RMM:   3    -0.186348816630E+04    0.34588E-04   -0.91462E-05   911   0.107E-02
  22 F= -.18874951E+04 E0= -.18874951E+04  d E =-.184590E-02
quench:  g(F)=  0.903E-02 g(S)=  0.000E+00 dE (1.order)=-0.107E+00
 bond charge predicted
       N       E                     dE             d eps       ncg     rms          rms(c)
DAV:   1    -0.186348943055E+04   -0.12297E-02   -0.12164E-01  1648   0.452E-01    0.973E-02
RMM:   2    -0.186348967865E+04   -0.24810E-03   -0.31746E-03  1515   0.663E-02    0.473E-02
RMM:   3    -0.186348963632E+04    0.42325E-04   -0.89530E-05   911   0.106E-02
  23 F= -.18874964E+04 E0= -.18874964E+04  d E =-.137397E-02
quench:  g(F)=  0.848E-02 g(S)=  0.000E+00 dE (1.order)=-0.118E+00
 bond charge predicted
       N       E                     dE             d eps       ncg     rms          rms(c)
DAV:   1    -0.186349051291E+04   -0.83426E-03   -0.52331E-02  1712   0.295E-01    0.661E-02
RMM:   2    -0.186349062839E+04   -0.11548E-03   -0.15443E-03  1430   0.452E-02    0.352E-02
RMM:   3    -0.186349060590E+04    0.22498E-04   -0.48520E-05   896   0.791E-03
  24 F= -.18874974E+04 E0= -.18874974E+04  d E =-.965804E-03
quench:  g(F)=  0.784E-02 g(S)=  0.000E+00 dE (1.order)=-0.127E+00
 bond charge predicted
       N       E                     dE             d eps       ncg     rms          rms(c)
DAV:   1    -0.186349135108E+04   -0.72268E-03   -0.30152E-02  1688   0.221E-01    0.417E-02
RMM:   2    -0.186349140830E+04   -0.57224E-04   -0.68365E-04  1230   0.312E-02
  25 F= -.18874982E+04 E0= -.18874982E+04  d E =-.770566E-03
quench:  g(F)=  0.724E-02 g(S)=  0.000E+00 dE (1.order)=-0.132E+00
 bond charge predicted
       N       E                     dE             d eps       ncg     rms          rms(c)
DAV:   1    -0.186349206774E+04   -0.71666E-03   -0.32094E-02  1568   0.225E-01    0.499E-02
RMM:   2    -0.186349212263E+04   -0.54893E-04   -0.68548E-04  1247   0.311E-02
  26 F= -.18874989E+04 E0= -.18874989E+04  d E =-.721323E-03
quench:  g(F)=  0.692E-02 g(S)=  0.000E+00 dE (1.order)=-0.129E+00
 bond charge predicted
       N       E                     dE             d eps       ncg     rms          rms(c)
DAV:   1    -0.186349280258E+04   -0.73484E-03   -0.39317E-02  1584   0.251E-01    0.563E-02
RMM:   2    -0.186349287245E+04   -0.69871E-04   -0.86621E-04  1346   0.350E-02
  27 F= -.18874996E+04 E0= -.18874996E+04  d E =-.708859E-03
quench:  g(F)=  0.835E-02 g(S)=  0.000E+00 dE (1.order)=-0.996E-01
 bond charge predicted
       N       E                     dE             d eps       ncg     rms          rms(c)
DAV:   1    -0.186349341343E+04   -0.61085E-03   -0.38541E-02  1584   0.251E-01    0.590E-02
RMM:   2    -0.186349348565E+04   -0.72225E-04   -0.90015E-04  1367   0.357E-02
  28 F= -.18875003E+04 E0= -.18875003E+04  d E =-.649843E-03
quench:  g(F)=  0.784E-02 g(S)=  0.000E+00 dE (1.order)=-0.451E-01
 bond charge predicted
       N       E                     dE             d eps       ncg     rms          rms(c)
DAV:   1    -0.186349399970E+04   -0.58628E-03   -0.35027E-02  1576   0.241E-01    0.575E-02
RMM:   2    -0.186349406862E+04   -0.68916E-04   -0.84550E-04  1321   0.347E-02
  29 F= -.18875008E+04 E0= -.18875008E+04  d E =-.571338E-03
quench:  g(F)=  0.495E-02 g(S)=  0.000E+00 dE (1.order)=-0.400E-01
 bond charge predicted
       N       E                     dE             d eps       ncg     rms          rms(c)
DAV:   1    -0.186349450714E+04   -0.50744E-03   -0.27791E-02  1624   0.215E-01    0.511E-02
RMM:   2    -0.186349456105E+04   -0.53909E-04   -0.66027E-04  1215   0.310E-02
  30 F= -.18875013E+04 E0= -.18875013E+04  d E =-.507007E-03
quench:  g(F)=  0.472E-02 g(S)=  0.000E+00 dE (1.order)=-0.468E-01
 bond charge predicted
       N       E                     dE             d eps       ncg     rms          rms(c)
DAV:   1    -0.186349496888E+04   -0.46174E-03   -0.23337E-02  1576   0.196E-01    0.459E-02
RMM:   2    -0.186349501189E+04   -0.43003E-04   -0.52628E-04  1145   0.278E-02
  31 F= -.18875018E+04 E0= -.18875018E+04  d E =-.455848E-03
quench:  g(F)=  0.460E-02 g(S)=  0.000E+00 dE (1.order)=-0.542E-01
 bond charge predicted
       N       E                     dE             d eps       ncg     rms          rms(c)
DAV:   1    -0.186349540688E+04   -0.43800E-03   -0.22772E-02  1552   0.192E-01    0.466E-02
RMM:   2    -0.186349544628E+04   -0.39401E-04   -0.49496E-04  1121   0.270E-02
  32 F= -.18875022E+04 E0= -.18875022E+04  d E =-.423191E-03
quench:  g(F)=  0.450E-02 g(S)=  0.000E+00 dE (1.order)=-0.610E-01
 bond charge predicted
       N       E                     dE             d eps       ncg     rms          rms(c)
DAV:   1    -0.186349580978E+04   -0.40290E-03   -0.22677E-02  1552   0.192E-01    0.479E-02
RMM:   2    -0.186349584967E+04   -0.39891E-04   -0.49590E-04  1114   0.271E-02
  33 F= -.18875026E+04 E0= -.18875026E+04  d E =-.383830E-03
quench:  g(F)=  0.439E-02 g(S)=  0.000E+00 dE (1.order)=-0.664E-01
 bond charge predicted
       N       E                     dE             d eps       ncg     rms          rms(c)
DAV:   1    -0.186349617343E+04   -0.36365E-03   -0.22115E-02  1576   0.189E-01    0.470E-02
RMM:   2    -0.186349621178E+04   -0.38351E-04   -0.47913E-04  1107   0.266E-02
  34 F= -.18875030E+04 E0= -.18875030E+04  d E =-.356708E-03
quench:  g(F)=  0.438E-02 g(S)=  0.000E+00 dE (1.order)=-0.695E-01
 bond charge predicted
       N       E                     dE             d eps       ncg     rms          rms(c)
DAV:   1    -0.186349656543E+04   -0.39200E-03   -0.23353E-02  1568   0.195E-01    0.479E-02
RMM:   2    -0.186349660668E+04   -0.41250E-04   -0.50885E-04  1140   0.274E-02
  35 F= -.18875033E+04 E0= -.18875033E+04  d E =-.333029E-03
quench:  g(F)=  0.449E-02 g(S)=  0.000E+00 dE (1.order)=-0.671E-01
 bond charge predicted
       N       E                     dE             d eps       ncg     rms          rms(c)
DAV:   1    -0.186349687606E+04   -0.31063E-03   -0.22391E-02  1584   0.192E-01    0.476E-02
RMM:   2    -0.186349691561E+04   -0.39552E-04   -0.49438E-04  1124   0.271E-02
  36 F= -.18875036E+04 E0= -.18875036E+04  d E =-.315762E-03
quench:  g(F)=  0.458E-02 g(S)=  0.000E+00 dE (1.order)=-0.551E-01
 bond charge predicted
       N       E                     dE             d eps       ncg     rms          rms(c)
DAV:   1    -0.186349724605E+04   -0.36999E-03   -0.19413E-02  1552   0.178E-01    0.445E-02
RMM:   2    -0.186349728062E+04   -0.34566E-04   -0.42916E-04  1081   0.253E-02
  37 F= -.18875039E+04 E0= -.18875039E+04  d E =-.293190E-03
quench:  g(F)=  0.436E-02 g(S)=  0.000E+00 dE (1.order)=-0.388E-01
 bond charge predicted
       N       E                     dE             d eps       ncg     rms          rms(c)
DAV:   1    -0.186349749194E+04   -0.24589E-03   -0.18232E-02  1568   0.173E-01    0.443E-02
RMM:   2    -0.186349752375E+04   -0.31811E-04   -0.40249E-04  1068   0.245E-02
  38 F= -.18875042E+04 E0= -.18875042E+04  d E =-.259050E-03
quench:  g(F)=  0.350E-02 g(S)=  0.000E+00 dE (1.order)=-0.327E-01
 bond charge predicted
       N       E                     dE             d eps       ncg     rms          rms(c)
DAV:   1    -0.186349781166E+04   -0.31972E-03   -0.16452E-02  1608   0.164E-01    0.415E-02
RMM:   2    -0.186349784037E+04   -0.28706E-04   -0.36044E-04  1036   0.233E-02
  39 F= -.18875044E+04 E0= -.18875044E+04  d E =-.238560E-03
quench:  g(F)=  0.340E-02 g(S)=  0.000E+00 dE (1.order)=-0.365E-01
 bond charge predicted
       N       E                     dE             d eps       ncg     rms          rms(c)
DAV:   1    -0.186349801902E+04   -0.20736E-03   -0.15118E-02  1592   0.157E-01    0.395E-02
RMM:   2    -0.186349804505E+04   -0.26024E-04   -0.32834E-04  1024   0.222E-02
  40 F= -.18875046E+04 E0= -.18875046E+04  d E =-.209390E-03
quench:  g(F)=  0.344E-02 g(S)=  0.000E+00 dE (1.order)=-0.417E-01
 bond charge predicted
       N       E                     dE             d eps       ncg     rms          rms(c)
DAV:   1    -0.186349828084E+04   -0.26181E-03   -0.14471E-02  1584   0.153E-01    0.381E-02
RMM:   2    -0.186349830564E+04   -0.24802E-04   -0.31055E-04  1009   0.217E-02
  41 F= -.18875048E+04 E0= -.18875048E+04  d E =-.186392E-03
quench:  g(F)=  0.351E-02 g(S)=  0.000E+00 dE (1.order)=-0.465E-01
 bond charge predicted
       N       E                     dE             d eps       ncg     rms          rms(c)
DAV:   1    -0.186349841716E+04   -0.13633E-03   -0.14320E-02  1600   0.152E-01    0.387E-02
RMM:   2    -0.186349844101E+04   -0.23848E-04   -0.30374E-04  1007   0.215E-02
  42 F= -.18875050E+04 E0= -.18875050E+04  d E =-.166748E-03
quench:  g(F)=  0.361E-02 g(S)=  0.000E+00 dE (1.order)=-0.498E-01
 bond charge predicted
       N       E                     dE             d eps       ncg     rms          rms(c)
DAV:   1    -0.186349858881E+04   -0.17164E-03   -0.14483E-02  1592   0.153E-01    0.389E-02
RMM:   2    -0.186349861337E+04   -0.24564E-04   -0.30802E-04  1012   0.216E-02
  43 F= -.18875051E+04 E0= -.18875051E+04  d E =-.143713E-03
quench:  g(F)=  0.370E-02 g(S)=  0.000E+00 dE (1.order)=-0.500E-01
 bond charge predicted
       N       E                     dE             d eps       ncg     rms          rms(c)
DAV:   1    -0.186349868126E+04   -0.92449E-04   -0.14469E-02  1552   0.154E-01    0.391E-02
RMM:   2    -0.186349870599E+04   -0.24734E-04   -0.31085E-04  1014   0.217E-02
  44 F= -.18875052E+04 E0= -.18875052E+04  d E =-.130133E-03
quench:  g(F)=  0.372E-02 g(S)=  0.000E+00 dE (1.order)=-0.464E-01
 bond charge predicted
       N       E                     dE             d eps       ncg     rms          rms(c)
DAV:   1    -0.186349882943E+04   -0.14817E-03   -0.13611E-02  1584   0.149E-01    0.363E-02
RMM:   2    -0.186349885265E+04   -0.23221E-04   -0.28850E-04   990   0.210E-02
  45 F= -.18875054E+04 E0= -.18875054E+04  d E =-.133930E-03
quench:  g(F)=  0.361E-02 g(S)=  0.000E+00 dE (1.order)=-0.401E-01
 bond charge predicted
       N       E                     dE             d eps       ncg     rms          rms(c)
DAV:   1    -0.186349890128E+04   -0.71849E-04   -0.12918E-02  1568   0.144E-01    0.358E-02
RMM:   2    -0.186349892237E+04   -0.21096E-04   -0.26742E-04   965   0.202E-02
  46 F= -.18875055E+04 E0= -.18875055E+04  d E =-.127369E-03
quench:  g(F)=  0.352E-02 g(S)=  0.000E+00 dE (1.order)=-0.333E-01
 bond charge predicted
       N       E                     dE             d eps       ncg     rms          rms(c)
DAV:   1    -0.186349903781E+04   -0.13653E-03   -0.13552E-02  1568   0.148E-01    0.359E-02
RMM:   2    -0.186349906038E+04   -0.22571E-04   -0.28332E-04   991   0.207E-02
  47 F= -.18875056E+04 E0= -.18875056E+04  d E =-.119633E-03
quench:  g(F)=  0.309E-02 g(S)=  0.000E+00 dE (1.order)=-0.315E-01
 bond charge predicted
       N       E                     dE             d eps       ncg     rms          rms(c)
DAV:   1    -0.186349909976E+04   -0.61953E-04   -0.13319E-02  1584   0.148E-01    0.356E-02
RMM:   2    -0.186349912351E+04   -0.23745E-04   -0.29265E-04   996   0.211E-02
  48 F= -.18875057E+04 E0= -.18875057E+04  d E =-.111179E-03
quench:  g(F)=  0.305E-02 g(S)=  0.000E+00 dE (1.order)=-0.347E-01
 bond charge predicted
       N       E                     dE             d eps       ncg     rms          rms(c)
DAV:   1    -0.186349921427E+04   -0.11451E-03   -0.11616E-02  1592   0.138E-01    0.320E-02
RMM:   2    -0.186349923472E+04   -0.20448E-04   -0.25117E-04   966   0.196E-02
  49 F= -.18875058E+04 E0= -.18875058E+04  d E =-.105987E-03
quench:  g(F)=  0.310E-02 g(S)=  0.000E+00 dE (1.order)=-0.382E-01
 bond charge predicted
       N       E                     dE             d eps       ncg     rms          rms(c)
DAV:   1    -0.186349926623E+04   -0.51961E-04   -0.11255E-02  1560   0.135E-01    0.323E-02
RMM:   2    -0.186349928476E+04   -0.18534E-04   -0.23365E-04   945   0.189E-02
  50 F= -.18875059E+04 E0= -.18875059E+04  d E =-.849257E-04
quench:  g(F)=  0.314E-02 g(S)=  0.000E+00 dE (1.order)=-0.408E-01
 bond charge predicted
       N       E                     dE             d eps       ncg     rms          rms(c)
DAV:   1    -0.186349937386E+04   -0.10762E-03   -0.11341E-02  1552   0.136E-01    0.325E-02
RMM:   2    -0.186349939279E+04   -0.18931E-04   -0.23626E-04   953   0.191E-02
  51 F= -.18875060E+04 E0= -.18875060E+04  d E =-.779990E-04
quench:  g(F)=  0.321E-02 g(S)=  0.000E+00 dE (1.order)=-0.425E-01
 bond charge predicted
       N       E                     dE             d eps       ncg     rms          rms(c)
DAV:   1    -0.186349941005E+04   -0.36191E-04   -0.11451E-02  1552   0.137E-01    0.332E-02
RMM:   2    -0.186349942890E+04   -0.18853E-04   -0.23891E-04   958   0.192E-02
  52 F= -.18875061E+04 E0= -.18875061E+04  d E =-.757919E-04
quench:  g(F)=  0.322E-02 g(S)=  0.000E+00 dE (1.order)=-0.417E-01
 bond charge predicted
       N       E                     dE             d eps       ncg     rms          rms(c)
DAV:   1    -0.186349948528E+04   -0.75236E-04   -0.11494E-02  1576   0.137E-01    0.324E-02
RMM:   2    -0.186349950406E+04   -0.18774E-04   -0.23801E-04   959   0.192E-02
  53 F= -.18875061E+04 E0= -.18875061E+04  d E =-.755629E-04
quench:  g(F)=  0.331E-02 g(S)=  0.000E+00 dE (1.order)=-0.380E-01
 bond charge predicted
       N       E                     dE             d eps       ncg     rms          rms(c)
DAV:   1    -0.186349949615E+04   -0.10871E-04   -0.12008E-02  1576   0.139E-01    0.321E-02
RMM:   2    -0.186349951657E+04   -0.20418E-04   -0.25036E-04   965   0.195E-02
  54 F= -.18875062E+04 E0= -.18875062E+04  d E =-.666913E-04
quench:  g(F)=  0.317E-02 g(S)=  0.000E+00 dE (1.order)=-0.327E-01
 bond charge predicted
       N       E                     dE             d eps       ncg     rms          rms(c)
DAV:   1    -0.186349955595E+04   -0.59796E-04   -0.12702E-02  1552   0.143E-01    0.339E-02
RMM:   2    -0.186349957647E+04   -0.20518E-04   -0.26273E-04   978   0.200E-02
  55 F= -.18875063E+04 E0= -.18875063E+04  d E =-.607971E-04
quench:  g(F)=  0.305E-02 g(S)=  0.000E+00 dE (1.order)=-0.302E-01
 bond charge predicted
       N       E                     dE             d eps       ncg     rms          rms(c)
DAV:   1    -0.186349955139E+04    0.45548E-05   -0.13117E-02  1568   0.146E-01    0.349E-02
RMM:   2    -0.186349957348E+04   -0.22081E-04   -0.27702E-04   989   0.206E-02
  56 F= -.18875063E+04 E0= -.18875063E+04  d E =-.615508E-04
quench:  g(F)=  0.289E-02 g(S)=  0.000E+00 dE (1.order)=-0.313E-01
 bond charge predicted
       N       E                     dE             d eps       ncg     rms          rms(c)
DAV:   1    -0.186349957237E+04   -0.20974E-04   -0.13076E-02  1576   0.145E-01    0.337E-02
RMM:   2    -0.186349959392E+04   -0.21553E-04   -0.27200E-04   985   0.202E-02
  57 F= -.18875064E+04 E0= -.18875064E+04  d E =-.549300E-04
quench:  g(F)=  0.288E-02 g(S)=  0.000E+00 dE (1.order)=-0.343E-01
 bond charge predicted
       N       E                     dE             d eps       ncg     rms          rms(c)
DAV:   1    -0.186349954993E+04    0.22436E-04   -0.13085E-02  1576   0.146E-01    0.347E-02
RMM:   2    -0.186349957218E+04   -0.22244E-04   -0.27866E-04   991   0.205E-02
  58 F= -.18875064E+04 E0= -.18875064E+04  d E =-.362237E-04
quench:  g(F)=  0.291E-02 g(S)=  0.000E+00 dE (1.order)=-0.373E-01
 bond charge predicted
       N       E                     dE             d eps       ncg     rms          rms(c)
DAV:   1    -0.186349956625E+04   -0.16318E-04   -0.12684E-02  1584   0.143E-01    0.344E-02
RMM:   2    -0.186349958755E+04   -0.21303E-04   -0.26881E-04   981   0.201E-02
  59 F= -.18875065E+04 E0= -.18875065E+04  d E =-.333896E-04
quench:  g(F)=  0.292E-02 g(S)=  0.000E+00 dE (1.order)=-0.396E-01
 bond charge predicted
       N       E                     dE             d eps       ncg     rms          rms(c)
DAV:   1    -0.186349954500E+04    0.21250E-04   -0.12648E-02  1552   0.143E-01    0.342E-02
RMM:   2    -0.186349956651E+04   -0.21516E-04   -0.26767E-04   981   0.202E-02
  60 F= -.18875065E+04 E0= -.18875065E+04  d E =-.208526E-04
quench:  g(F)=  0.297E-02 g(S)=  0.000E+00 dE (1.order)=-0.415E-01
 bond charge predicted
       N       E                     dE             d eps       ncg     rms          rms(c)
DAV:   1    -0.186349954131E+04    0.36883E-05   -0.11369E-02  1576   0.136E-01    0.339E-02
RMM:   2    -0.186349956041E+04   -0.19098E-04   -0.23930E-04   956   0.191E-02
  61 F= -.18875065E+04 E0= -.18875065E+04  d E =-.250275E-04
quench:  g(F)=  0.303E-02 g(S)=  0.000E+00 dE (1.order)=-0.407E-01
 bond charge predicted
       N       E                     dE             d eps       ncg     rms          rms(c)
DAV:   1    -0.186349952846E+04    0.12853E-04   -0.10977E-02  1560   0.132E-01    0.330E-02
RMM:   2    -0.186349954541E+04   -0.16947E-04   -0.21653E-04   918   0.183E-02
  62 F= -.18875065E+04 E0= -.18875065E+04  d E =-.109475E-04
quench:  g(F)=  0.316E-02 g(S)=  0.000E+00 dE (1.order)=-0.362E-01
 bond charge predicted
       N       E                     dE             d eps       ncg     rms          rms(c)
DAV:   1    -0.186349948146E+04    0.46999E-04   -0.12028E-02  1552   0.139E-01    0.349E-02
RMM:   2    -0.186349950030E+04   -0.18843E-04   -0.24103E-04   948   0.192E-02
  63 F= -.18875065E+04 E0= -.18875065E+04  d E =-.506144E-05
quench:  g(F)=  0.297E-02 g(S)=  0.000E+00 dE (1.order)=-0.310E-01
 bond charge predicted
       N       E                     dE             d eps       ncg     rms          rms(c)
DAV:   1    -0.186349945361E+04    0.27849E-04   -0.12491E-02  1568   0.143E-01    0.351E-02
RMM:   2    -0.186349947394E+04   -0.20329E-04   -0.25158E-04   961   0.198E-02
  64 F= -.18875065E+04 E0= -.18875065E+04  d E =-.337216E-05
quench:  g(F)=  0.282E-02 g(S)=  0.000E+00 dE (1.order)=-0.287E-01
 bond charge predicted
       N       E                     dE             d eps       ncg     rms          rms(c)
DAV:   1    -0.186349940454E+04    0.49068E-04   -0.11567E-02  1552   0.136E-01    0.344E-02
RMM:   2    -0.186349942256E+04   -0.18014E-04   -0.23212E-04   936   0.189E-02
  65 F= -.18875065E+04 E0= -.18875065E+04  d E =-.194956E-05
quench:  g(F)=  0.263E-02 g(S)=  0.000E+00 dE (1.order)=-0.295E-01
 bond charge predicted
       N       E                     dE             d eps       ncg     rms          rms(c)
DAV:   1    -0.186349935857E+04    0.45970E-04   -0.12430E-02  1552   0.141E-01    0.336E-02
RMM:   2    -0.186349937820E+04   -0.19628E-04   -0.24523E-04   940   0.194E-02
  66 F= -.18875065E+04 E0= -.18875065E+04  d E =0.556782E-05
quench:  g(F)=  0.263E-02 g(S)=  0.000E+00 dE (1.order)=-0.324E-01
 bond charge predicted
       N       E                     dE             d eps       ncg     rms          rms(c)
DAV:   1    -0.186349930924E+04    0.49336E-04   -0.13313E-02  1552   0.146E-01    0.367E-02
RMM:   2    -0.186349933029E+04   -0.21052E-04   -0.26968E-04   974   0.203E-02
  67 F= -.18875065E+04 E0= -.18875065E+04  d E =0.310859E-05
quench:  g(F)=  0.272E-02 g(S)=  0.000E+00 dE (1.order)=-0.356E-01
 bond charge predicted
       N       E                     dE             d eps       ncg     rms          rms(c)
DAV:   1    -0.186349927651E+04    0.32726E-04   -0.14184E-02  1576   0.152E-01    0.371E-02
RMM:   2    -0.186349930014E+04   -0.23633E-04   -0.29556E-04   999   0.213E-02
  68 F= -.18875065E+04 E0= -.18875065E+04  d E =-.669358E-05
quench:  g(F)=  0.281E-02 g(S)=  0.000E+00 dE (1.order)=-0.380E-01
 bond charge predicted
       N       E                     dE             d eps       ncg     rms          rms(c)
DAV:   1    -0.186349920938E+04    0.67125E-04   -0.13639E-02  1592   0.149E-01    0.374E-02
RMM:   2    -0.186349923246E+04   -0.23073E-04   -0.28550E-04   987   0.209E-02
  69 F= -.18875065E+04 E0= -.18875065E+04  d E =0.130437E-05
quench:  g(F)=  0.274E-02 g(S)=  0.000E+00 dE (1.order)=-0.387E-01
 bond charge predicted
       N       E                     dE             d eps       ncg     rms          rms(c)
DAV:   1    -0.186349916001E+04    0.49371E-04   -0.12961E-02  1544   0.146E-01    0.355E-02
RMM:   2    -0.186349918187E+04   -0.21853E-04   -0.26862E-04   970   0.203E-02
  70 F= -.18875065E+04 E0= -.18875065E+04  d E =0.552918E-05
quench:  g(F)=  0.275E-02 g(S)=  0.000E+00 dE (1.order)=-0.380E-01
 bond charge predicted
       N       E                     dE             d eps       ncg     rms          rms(c)
DAV:   1    -0.186349908128E+04    0.78730E-04   -0.12679E-02  1584   0.144E-01    0.347E-02
RMM:   2    -0.186349910237E+04   -0.21090E-04   -0.25835E-04   957   0.200E-02
  71 F= -.18875065E+04 E0= -.18875065E+04  d E =0.168670E-04
quench:  g(F)=  0.291E-02 g(S)=  0.000E+00 dE (1.order)=-0.343E-01
 bond charge predicted
       N       E                     dE             d eps       ncg     rms          rms(c)
DAV:   1    -0.186349899099E+04    0.90289E-04   -0.13504E-02  1568   0.149E-01    0.355E-02
RMM:   2    -0.186349901344E+04   -0.22449E-04   -0.27822E-04   975   0.206E-02
  72 F= -.18875065E+04 E0= -.18875065E+04  d E =0.295667E-04
quench:  g(F)=  0.272E-02 g(S)=  0.000E+00 dE (1.order)=-0.306E-01
 bond charge predicted
       N       E                     dE             d eps       ncg     rms          rms(c)
DAV:   1    -0.186349891968E+04    0.71316E-04   -0.13215E-02  1552   0.148E-01    0.370E-02
RMM:   2    -0.186349894200E+04   -0.22323E-04   -0.27392E-04   970   0.205E-02
  73 F= -.18875064E+04 E0= -.18875064E+04  d E =0.318114E-04
quench:  g(F)=  0.274E-02 g(S)=  0.000E+00 dE (1.order)=-0.290E-01
 bond charge predicted
       N       E                     dE             d eps       ncg     rms          rms(c)
DAV:   1    -0.186349882608E+04    0.93600E-04   -0.12952E-02  1552   0.145E-01    0.355E-02
RMM:   2    -0.186349884718E+04   -0.21098E-04   -0.26230E-04   953   0.201E-02
  74 F= -.18875064E+04 E0= -.18875064E+04  d E =0.407142E-04
quench:  g(F)=  0.261E-02 g(S)=  0.000E+00 dE (1.order)=-0.291E-01
 bond charge predicted
       N       E                     dE             d eps       ncg     rms          rms(c)
DAV:   1    -0.186349875133E+04    0.74753E-04   -0.13092E-02  1552   0.146E-01    0.365E-02
RMM:   2    -0.186349877190E+04   -0.20571E-04   -0.25958E-04   960   0.200E-02
  75 F= -.18875063E+04 E0= -.18875063E+04  d E =0.477384E-04
quench:  g(F)=  0.264E-02 g(S)=  0.000E+00 dE (1.order)=-0.315E-01
 bond charge predicted
       N       E                     dE             d eps       ncg     rms          rms(c)
DAV:   1    -0.186349861499E+04    0.13633E-03   -0.13853E-02  1552   0.149E-01    0.359E-02
RMM:   2    -0.186349863646E+04   -0.21468E-04   -0.27052E-04   969   0.203E-02
  76 F= -.18875063E+04 E0= -.18875063E+04  d E =0.534330E-04
quench:  g(F)=  0.269E-02 g(S)=  0.000E+00 dE (1.order)=-0.337E-01
 bond charge predicted
       N       E                     dE             d eps       ncg     rms          rms(c)
DAV:   1    -0.186349850104E+04    0.11396E-03   -0.15277E-02  1552   0.158E-01    0.365E-02
RMM:   2    -0.186349852506E+04   -0.24016E-04   -0.29924E-04   989   0.214E-02
  77 F= -.18875062E+04 E0= -.18875062E+04  d E =0.592932E-04
quench:  g(F)=  0.269E-02 g(S)=  0.000E+00 dE (1.order)=-0.349E-01
 bond charge predicted
       N       E                     dE             d eps       ncg     rms          rms(c)
DAV:   1    -0.186349840107E+04    0.99969E-04   -0.15543E-02  1552   0.160E-01    0.381E-02
RMM:   2    -0.186349842587E+04   -0.24800E-04   -0.31142E-04   994   0.220E-02
  78 F= -.18875062E+04 E0= -.18875062E+04  d E =0.496473E-04
quench:  g(F)=  0.273E-02 g(S)=  0.000E+00 dE (1.order)=-0.350E-01
 bond charge predicted
       N       E                     dE             d eps       ncg     rms          rms(c)
DAV:   1    -0.186349831307E+04    0.87997E-04   -0.15389E-02  1552   0.159E-01    0.367E-02
RMM:   2    -0.186349833822E+04   -0.25148E-04   -0.31381E-04   989   0.220E-02
  79 F= -.18875061E+04 E0= -.18875061E+04  d E =0.386737E-04
quench:  g(F)=  0.270E-02 g(S)=  0.000E+00 dE (1.order)=-0.334E-01
 bond charge predicted
       N       E                     dE             d eps       ncg     rms          rms(c)
DAV:   1    -0.186349820807E+04    0.10500E-03   -0.14692E-02  1568   0.155E-01    0.369E-02
RMM:   2    -0.186349823184E+04   -0.23761E-04   -0.29539E-04   988   0.214E-02
  80 F= -.18875061E+04 E0= -.18875061E+04  d E =0.418827E-04
quench:  g(F)=  0.266E-02 g(S)=  0.000E+00 dE (1.order)=-0.304E-01
 bond charge predicted
       N       E                     dE             d eps       ncg     rms          rms(c)
DAV:   1    -0.186349810233E+04    0.10575E-03   -0.15703E-02  1552   0.161E-01    0.363E-02
RMM:   2    -0.186349812744E+04   -0.25109E-04   -0.31403E-04  1001   0.220E-02
  81 F= -.18875061E+04 E0= -.18875061E+04  d E =0.463636E-04
quench:  g(F)=  0.255E-02 g(S)=  0.000E+00 dE (1.order)=-0.289E-01
 bond charge predicted
       N       E                     dE             d eps       ncg     rms          rms(c)
DAV:   1    -0.186349798046E+04    0.12187E-03   -0.15673E-02  1552   0.160E-01    0.380E-02
RMM:   2    -0.186349800627E+04   -0.25806E-04   -0.32007E-04  1012   0.222E-02
  82 F= -.18875060E+04 E0= -.18875060E+04  d E =0.666256E-04
quench:  g(F)=  0.249E-02 g(S)=  0.000E+00 dE (1.order)=-0.285E-01
 bond charge predicted
       N       E                     dE             d eps       ncg     rms          rms(c)
DAV:   1    -0.186349789093E+04    0.89538E-04   -0.14663E-02  1568   0.155E-01    0.371E-02
RMM:   2    -0.186349791473E+04   -0.23806E-04   -0.29820E-04   994   0.215E-02
  83 F= -.18875059E+04 E0= -.18875059E+04  d E =0.647080E-04
quench:  g(F)=  0.253E-02 g(S)=  0.000E+00 dE (1.order)=-0.296E-01
 bond charge predicted
       N       E                     dE             d eps       ncg     rms          rms(c)
DAV:   1    -0.186349776342E+04    0.12751E-03   -0.14332E-02  1544   0.153E-01    0.360E-02
RMM:   2    -0.186349778564E+04   -0.22218E-04   -0.28227E-04   980   0.209E-02
  84 F= -.18875059E+04 E0= -.18875059E+04  d E =0.746073E-04
quench:  g(F)=  0.254E-02 g(S)=  0.000E+00 dE (1.order)=-0.306E-01
 bond charge predicted
       N       E                     dE             d eps       ncg     rms          rms(c)
DAV:   1    -0.186349767397E+04    0.89450E-04   -0.15575E-02  1552   0.160E-01    0.370E-02
RMM:   2    -0.186349769838E+04   -0.24416E-04   -0.31008E-04  1001   0.218E-02
  85 F= -.18875058E+04 E0= -.18875058E+04  d E =0.677493E-04
quench:  g(F)=  0.259E-02 g(S)=  0.000E+00 dE (1.order)=-0.315E-01
 bond charge predicted
       N       E                     dE             d eps       ncg     rms          rms(c)
DAV:   1    -0.186349752078E+04    0.15319E-03   -0.16467E-02  1624   0.165E-01    0.370E-02
RMM:   2    -0.186349754724E+04   -0.26462E-04   -0.32847E-04  1018   0.225E-02
  86 F= -.18875057E+04 E0= -.18875057E+04  d E =0.642060E-04
quench:  g(F)=  0.247E-02 g(S)=  0.000E+00 dE (1.order)=-0.314E-01
 bond charge predicted
       N       E                     dE             d eps       ncg     rms          rms(c)
DAV:   1    -0.186349745160E+04    0.69183E-04   -0.16422E-02  1592   0.165E-01    0.391E-02
RMM:   2    -0.186349747741E+04   -0.25806E-04   -0.33549E-04  1029   0.228E-02
  87 F= -.18875057E+04 E0= -.18875057E+04  d E =0.588099E-04
quench:  g(F)=  0.247E-02 g(S)=  0.000E+00 dE (1.order)=-0.312E-01
 bond charge predicted
       N       E                     dE             d eps       ncg     rms          rms(c)
DAV:   1    -0.186349732995E+04    0.12165E-03   -0.15245E-02  1600   0.158E-01    0.375E-02
RMM:   2    -0.186349735448E+04   -0.24532E-04   -0.31010E-04   996   0.220E-02
  88 F= -.18875056E+04 E0= -.18875056E+04  d E =0.572888E-04
quench:  g(F)=  0.252E-02 g(S)=  0.000E+00 dE (1.order)=-0.294E-01
 bond charge predicted
       N       E                     dE             d eps       ncg     rms          rms(c)
DAV:   1    -0.186349727255E+04    0.57397E-04   -0.14837E-02  1600   0.154E-01    0.356E-02
RMM:   2    -0.186349729505E+04   -0.22503E-04   -0.29648E-04   989   0.214E-02
  89 F= -.18875055E+04 E0= -.18875055E+04  d E =0.587776E-04
quench:  g(F)=  0.248E-02 g(S)=  0.000E+00 dE (1.order)=-0.277E-01
 bond charge predicted
       N       E                     dE             d eps       ncg     rms          rms(c)
DAV:   1    -0.186349716612E+04    0.10642E-03   -0.14986E-02  1536   0.155E-01    0.353E-02
RMM:   2    -0.186349718817E+04   -0.22045E-04   -0.29235E-04   995   0.212E-02
  90 F= -.18875055E+04 E0= -.18875055E+04  d E =0.695470E-04
quench:  g(F)=  0.241E-02 g(S)=  0.000E+00 dE (1.order)=-0.272E-01
 bond charge predicted
       N       E                     dE             d eps       ncg     rms          rms(c)
DAV:   1    -0.186349710408E+04    0.62043E-04   -0.15968E-02  1560   0.161E-01    0.366E-02
RMM:   2    -0.186349712787E+04   -0.23787E-04   -0.31651E-04  1009   0.222E-02
  91 F= -.18875054E+04 E0= -.18875054E+04  d E =0.776890E-04
quench:  g(F)=  0.241E-02 g(S)=  0.000E+00 dE (1.order)=-0.282E-01
 bond charge predicted
       N       E                     dE             d eps       ncg     rms          rms(c)
DAV:   1    -0.186349699781E+04    0.10627E-03   -0.16701E-02  1568   0.167E-01    0.377E-02
RMM:   2    -0.186349702479E+04   -0.26980E-04   -0.34208E-04  1022   0.232E-02
  92 F= -.18875053E+04 E0= -.18875053E+04  d E =0.792727E-04
quench:  g(F)=  0.245E-02 g(S)=  0.000E+00 dE (1.order)=-0.294E-01
 bond charge predicted
       N       E                     dE             d eps       ncg     rms          rms(c)
DAV:   1    -0.186349691169E+04    0.86114E-04   -0.14855E-02  1568   0.156E-01    0.356E-02
RMM:   2    -0.186349693567E+04   -0.23971E-04   -0.30515E-04   998   0.218E-02
  93 F= -.18875053E+04 E0= -.18875053E+04  d E =0.636131E-04
quench:  g(F)=  0.249E-02 g(S)=  0.000E+00 dE (1.order)=-0.306E-01
 bond charge predicted
       N       E                     dE             d eps       ncg     rms          rms(c)
DAV:   1    -0.186349680028E+04    0.11142E-03   -0.14500E-02  1536   0.154E-01    0.340E-02
RMM:   2    -0.186349682344E+04   -0.23168E-04   -0.29083E-04   991   0.213E-02
  94 F= -.18875052E+04 E0= -.18875052E+04  d E =0.724185E-04
quench:  g(F)=  0.249E-02 g(S)=  0.000E+00 dE (1.order)=-0.308E-01
 bond charge predicted
       N       E                     dE             d eps       ncg     rms          rms(c)
DAV:   1    -0.186349671220E+04    0.88077E-04   -0.14160E-02  1576   0.152E-01    0.348E-02
RMM:   2    -0.186349673456E+04   -0.22362E-04   -0.28959E-04   987   0.211E-02
  95 F= -.18875051E+04 E0= -.18875051E+04  d E =0.769502E-04
quench:  g(F)=  0.246E-02 g(S)=  0.000E+00 dE (1.order)=-0.300E-01
 bond charge predicted
       N       E                     dE             d eps       ncg     rms          rms(c)
DAV:   1    -0.186349659840E+04    0.11380E-03   -0.14537E-02  1560   0.155E-01    0.345E-02
RMM:   2    -0.186349662170E+04   -0.23307E-04   -0.29345E-04   991   0.214E-02
  96 F= -.18875050E+04 E0= -.18875050E+04  d E =0.795564E-04
quench:  g(F)=  0.246E-02 g(S)=  0.000E+00 dE (1.order)=-0.284E-01
 bond charge predicted
       N       E                     dE             d eps       ncg     rms          rms(c)
DAV:   1    -0.186349646581E+04    0.13259E-03   -0.15027E-02  1552   0.156E-01    0.347E-02
RMM:   2    -0.186349648940E+04   -0.23593E-04   -0.29990E-04   993   0.214E-02
  97 F= -.18875049E+04 E0= -.18875049E+04  d E =0.806182E-04
quench:  g(F)=  0.239E-02 g(S)=  0.000E+00 dE (1.order)=-0.270E-01
 bond charge predicted
       N       E                     dE             d eps       ncg     rms          rms(c)
DAV:   1    -0.186349635905E+04    0.10676E-03   -0.16776E-02  1544   0.167E-01    0.363E-02
RMM:   2    -0.186349638605E+04   -0.27002E-04   -0.34129E-04  1023   0.229E-02
  98 F= -.18875048E+04 E0= -.18875048E+04  d E =0.101196E-03
quench:  g(F)=  0.232E-02 g(S)=  0.000E+00 dE (1.order)=-0.270E-01
 bond charge predicted
       N       E                     dE             d eps       ncg     rms          rms(c)
DAV:   1    -0.186349621888E+04    0.14016E-03   -0.16806E-02  1552   0.167E-01    0.370E-02
RMM:   2    -0.186349624714E+04   -0.28253E-04   -0.34799E-04  1025   0.231E-02
  99 F= -.18875047E+04 E0= -.18875047E+04  d E =0.987133E-04
quench:  g(F)=  0.240E-02 g(S)=  0.000E+00 dE (1.order)=-0.283E-01
 bond charge predicted
       N       E                     dE             d eps       ncg     rms          rms(c)
DAV:   1    -0.186349609535E+04    0.12353E-03   -0.15905E-02  1576   0.162E-01    0.357E-02
RMM:   2    -0.186349612139E+04   -0.26041E-04   -0.32740E-04  1016   0.223E-02
 100 F= -.18875046E+04 E0= -.18875046E+04  d E =0.107531E-03
quench:  g(F)=  0.237E-02 g(S)=  0.000E+00 dE (1.order)=-0.288E-01
 bond charge predicted
       N       E                     dE             d eps       ncg     rms          rms(c)
DAV:   1    -0.186349592998E+04    0.16537E-03   -0.16343E-02  1552   0.163E-01    0.345E-02
RMM:   2    -0.186349595684E+04   -0.26864E-04   -0.32922E-04  1014   0.222E-02
 101 F= -.18875045E+04 E0= -.18875045E+04  d E =0.127449E-03
quench:  g(F)=  0.241E-02 g(S)=  0.000E+00 dE (1.order)=-0.299E-01
 bond charge predicted
       N       E                     dE             d eps       ncg     rms          rms(c)
DAV:   1    -0.186349579783E+04    0.13215E-03   -0.18502E-02  1552   0.175E-01    0.393E-02
RMM:   2    -0.186349582832E+04   -0.30493E-04   -0.38180E-04  1053   0.240E-02
 102 F= -.18875044E+04 E0= -.18875044E+04  d E =0.125168E-03
quench:  g(F)=  0.235E-02 g(S)=  0.000E+00 dE (1.order)=-0.304E-01
 bond charge predicted
       N       E                     dE             d eps       ncg     rms          rms(c)
DAV:   1    -0.186349565454E+04    0.14329E-03   -0.18967E-02  1552   0.177E-01    0.387E-02
RMM:   2    -0.186349568655E+04   -0.32007E-04   -0.39418E-04  1057   0.244E-02
 103 F= -.18875043E+04 E0= -.18875043E+04  d E =0.107709E-03
quench:  g(F)=  0.236E-02 g(S)=  0.000E+00 dE (1.order)=-0.304E-01
 bond charge predicted
       N       E                     dE             d eps       ncg     rms          rms(c)
DAV:   1    -0.186349553260E+04    0.12194E-03   -0.18212E-02  1552   0.174E-01    0.364E-02
RMM:   2    -0.186349556361E+04   -0.31011E-04   -0.37981E-04  1052   0.240E-02
 104 F= -.18875042E+04 E0= -.18875042E+04  d E =0.100991E-03
quench:  g(F)=  0.249E-02 g(S)=  0.000E+00 dE (1.order)=-0.295E-01
 bond charge predicted
       N       E                     dE             d eps       ncg     rms          rms(c)
DAV:   1    -0.186349538042E+04    0.15218E-03   -0.16926E-02  1552   0.165E-01    0.355E-02
RMM:   2    -0.186349540822E+04   -0.27802E-04   -0.34534E-04  1024   0.228E-02
 105 F= -.18875041E+04 E0= -.18875041E+04  d E =0.117133E-03
quench:  g(F)=  0.244E-02 g(S)=  0.000E+00 dE (1.order)=-0.274E-01
 bond charge predicted
       N       E                     dE             d eps       ncg     rms          rms(c)
DAV:   1    -0.186349524890E+04    0.13152E-03   -0.18877E-02  1552   0.176E-01    0.380E-02
RMM:   2    -0.186349528002E+04   -0.31116E-04   -0.38816E-04  1052   0.241E-02
 106 F= -.18875039E+04 E0= -.18875039E+04  d E =0.135224E-03
quench:  g(F)=  0.244E-02 g(S)=  0.000E+00 dE (1.order)=-0.268E-01
 bond charge predicted
       N       E                     dE             d eps       ncg     rms          rms(c)
DAV:   1    -0.186349508613E+04    0.16277E-03   -0.18484E-02  1552   0.173E-01    0.382E-02
RMM:   2    -0.186349511780E+04   -0.31667E-04   -0.38674E-04  1047   0.240E-02
 107 F= -.18875038E+04 E0= -.18875038E+04  d E =0.120852E-03
quench:  g(F)=  0.239E-02 g(S)=  0.000E+00 dE (1.order)=-0.268E-01
 bond charge predicted
       N       E                     dE             d eps       ncg     rms          rms(c)
DAV:   1    -0.186349493186E+04    0.15428E-03   -0.18893E-02  1600   0.175E-01    0.386E-02
RMM:   2    -0.186349496365E+04   -0.31791E-04   -0.39090E-04  1057   0.242E-02
 108 F= -.18875037E+04 E0= -.18875037E+04  d E =0.144180E-03
quench:  g(F)=  0.238E-02 g(S)=  0.000E+00 dE (1.order)=-0.274E-01
 bond charge predicted
       N       E                     dE             d eps       ncg     rms          rms(c)
DAV:   1    -0.186349475531E+04    0.17654E-03   -0.20363E-02  1552   0.182E-01    0.381E-02
RMM:   2    -0.186349479024E+04   -0.34934E-04   -0.42605E-04  1079   0.252E-02
 109 F= -.18875035E+04 E0= -.18875035E+04  d E =0.131291E-03
quench:  g(F)=  0.242E-02 g(S)=  0.000E+00 dE (1.order)=-0.280E-01
 bond charge predicted
       N       E                     dE             d eps       ncg     rms          rms(c)
DAV:   1    -0.186349463746E+04    0.11785E-03   -0.19106E-02  1616   0.177E-01    0.400E-02
RMM:   2    -0.186349467020E+04   -0.32742E-04   -0.40667E-04  1069   0.247E-02
 110 F= -.18875034E+04 E0= -.18875034E+04  d E =0.138976E-03
quench:  g(F)=  0.235E-02 g(S)=  0.000E+00 dE (1.order)=-0.282E-01
 bond charge predicted
       N       E                     dE             d eps       ncg     rms          rms(c)
DAV:   1    -0.186349446010E+04    0.17736E-03   -0.18454E-02  1616   0.175E-01    0.383E-02
RMM:   2    -0.186349449242E+04   -0.32316E-04   -0.39321E-04  1054   0.243E-02
 111 F= -.18875033E+04 E0= -.18875033E+04  d E =0.121008E-03
quench:  g(F)=  0.241E-02 g(S)=  0.000E+00 dE (1.order)=-0.286E-01
 bond charge predicted
       N       E                     dE             d eps       ncg     rms          rms(c)
DAV:   1    -0.186349430085E+04    0.15925E-03   -0.16463E-02  1568   0.165E-01    0.362E-02
RMM:   2    -0.186349432938E+04   -0.28525E-04   -0.34931E-04  1031   0.230E-02
 112 F= -.18875031E+04 E0= -.18875031E+04  d E =0.134775E-03
quench:  g(F)=  0.240E-02 g(S)=  0.000E+00 dE (1.order)=-0.285E-01
 bond charge predicted
       N       E                     dE             d eps       ncg     rms          rms(c)
DAV:   1    -0.186349410234E+04    0.19851E-03   -0.16835E-02  1584   0.165E-01    0.353E-02
RMM:   2    -0.186349413098E+04   -0.28642E-04   -0.35049E-04  1027   0.229E-02
 113 F= -.18875030E+04 E0= -.18875030E+04  d E =0.135060E-03
quench:  g(F)=  0.241E-02 g(S)=  0.000E+00 dE (1.order)=-0.290E-01
 bond charge predicted
       N       E                     dE             d eps       ncg     rms          rms(c)
DAV:   1    -0.186349392990E+04    0.17244E-03   -0.17459E-02  1568   0.168E-01    0.359E-02
RMM:   2    -0.186349395955E+04   -0.29647E-04   -0.36712E-04  1038   0.234E-02
 114 F= -.18875028E+04 E0= -.18875028E+04  d E =0.162149E-03
quench:  g(F)=  0.241E-02 g(S)=  0.000E+00 dE (1.order)=-0.291E-01
 bond charge predicted
       N       E                     dE             d eps       ncg     rms          rms(c)
DAV:   1    -0.186349370328E+04    0.22663E-03   -0.17339E-02  1552   0.168E-01    0.364E-02
RMM:   2    -0.186349373300E+04   -0.29723E-04   -0.36546E-04  1046   0.233E-02
 115 F= -.18875027E+04 E0= -.18875027E+04  d E =0.171734E-03
quench:  g(F)=  0.245E-02 g(S)=  0.000E+00 dE (1.order)=-0.290E-01
 bond charge predicted
       N       E                     dE             d eps       ncg     rms          rms(c)
DAV:   1    -0.186349351233E+04    0.19095E-03   -0.17024E-02  1616   0.167E-01    0.367E-02
RMM:   2    -0.186349354142E+04   -0.29093E-04   -0.36236E-04  1035   0.233E-02
 116 F= -.18875025E+04 E0= -.18875025E+04  d E =0.172497E-03
quench:  g(F)=  0.247E-02 g(S)=  0.000E+00 dE (1.order)=-0.283E-01
 bond charge predicted
       N       E                     dE             d eps       ncg     rms          rms(c)
DAV:   1    -0.186349331217E+04    0.20016E-03   -0.17270E-02  1560   0.167E-01    0.355E-02
RMM:   2    -0.186349334185E+04   -0.29684E-04   -0.36502E-04  1046   0.231E-02
 117 F= -.18875023E+04 E0= -.18875023E+04  d E =0.152056E-03
quench:  g(F)=  0.248E-02 g(S)=  0.000E+00 dE (1.order)=-0.275E-01
 bond charge predicted
       N       E                     dE             d eps       ncg     rms          rms(c)
DAV:   1    -0.186349306712E+04    0.24505E-03   -0.19066E-02  1552   0.175E-01    0.350E-02
RMM:   2    -0.186349309960E+04   -0.32480E-04   -0.39838E-04  1053   0.241E-02
 118 F= -.18875022E+04 E0= -.18875022E+04  d E =0.170311E-03
quench:  g(F)=  0.237E-02 g(S)=  0.000E+00 dE (1.order)=-0.265E-01
 bond charge predicted
       N       E                     dE             d eps       ncg     rms          rms(c)
DAV:   1    -0.186349284464E+04    0.22247E-03   -0.19440E-02  1552   0.177E-01    0.370E-02
RMM:   2    -0.186349287835E+04   -0.33704E-04   -0.41526E-04  1064   0.247E-02
 119 F= -.18875020E+04 E0= -.18875020E+04  d E =0.173655E-03
quench:  g(F)=  0.236E-02 g(S)=  0.000E+00 dE (1.order)=-0.269E-01
 bond charge predicted
       N       E                     dE             d eps       ncg     rms          rms(c)
DAV:   1    -0.186349260328E+04    0.24137E-03   -0.18954E-02  1568   0.175E-01    0.370E-02
RMM:   2    -0.186349263668E+04   -0.33407E-04   -0.40752E-04  1060   0.245E-02
 120 F= -.18875018E+04 E0= -.18875018E+04  d E =0.169613E-03
quench:  g(F)=  0.234E-02 g(S)=  0.000E+00 dE (1.order)=-0.278E-01
 bond charge predicted
       N       E                     dE             d eps       ncg     rms          rms(c)
DAV:   1    -0.186349238949E+04    0.21379E-03   -0.18087E-02  1552   0.171E-01    0.357E-02
RMM:   2    -0.186349242131E+04   -0.31827E-04   -0.38549E-04  1045   0.238E-02
 121 F= -.18875017E+04 E0= -.18875017E+04  d E =0.163632E-03
quench:  g(F)=  0.238E-02 g(S)=  0.000E+00 dE (1.order)=-0.291E-01
 bond charge predicted
       N       E                     dE             d eps       ncg     rms          rms(c)
DAV:   1    -0.186349217707E+04    0.21242E-03   -0.17962E-02  1568   0.169E-01    0.346E-02
RMM:   2    -0.186349220755E+04   -0.30486E-04   -0.37540E-04  1041   0.234E-02
 122 F= -.18875015E+04 E0= -.18875015E+04  d E =0.180432E-03
quench:  g(F)=  0.242E-02 g(S)=  0.000E+00 dE (1.order)=-0.305E-01
 bond charge predicted
       N       E                     dE             d eps       ncg     rms          rms(c)
DAV:   1    -0.186349194816E+04    0.22890E-03   -0.19058E-02  1568   0.174E-01    0.363E-02
RMM:   2    -0.186349198146E+04   -0.33292E-04   -0.40044E-04  1052   0.241E-02
 123 F= -.18875013E+04 E0= -.18875013E+04  d E =0.183277E-03
quench:  g(F)=  0.245E-02 g(S)=  0.000E+00 dE (1.order)=-0.311E-01
 bond charge predicted
       N       E                     dE             d eps       ncg     rms          rms(c)
DAV:   1    -0.186349172604E+04    0.22212E-03   -0.19723E-02  1552   0.177E-01    0.378E-02
RMM:   2    -0.186349175939E+04   -0.33347E-04   -0.41223E-04  1062   0.245E-02
 124 F= -.18875011E+04 E0= -.18875011E+04  d E =0.191925E-03
quench:  g(F)=  0.249E-02 g(S)=  0.000E+00 dE (1.order)=-0.301E-01
 bond charge predicted
       N       E                     dE             d eps       ncg     rms          rms(c)
DAV:   1    -0.186349147093E+04    0.25511E-03   -0.20117E-02  1576   0.179E-01    0.387E-02
RMM:   2    -0.186349150565E+04   -0.34721E-04   -0.42263E-04  1071   0.249E-02
 125 F= -.18875009E+04 E0= -.18875009E+04  d E =0.189166E-03
quench:  g(F)=  0.245E-02 g(S)=  0.000E+00 dE (1.order)=-0.275E-01
 bond charge predicted
       N       E                     dE             d eps       ncg     rms          rms(c)
DAV:   1    -0.186349125956E+04    0.21137E-03   -0.19724E-02  1552   0.177E-01    0.381E-02
RMM:   2    -0.186349129255E+04   -0.32997E-04   -0.40826E-04  1064   0.244E-02
 126 F= -.18875007E+04 E0= -.18875007E+04  d E =0.181672E-03
quench:  g(F)=  0.242E-02 g(S)=  0.000E+00 dE (1.order)=-0.246E-01
 bond charge predicted
       N       E                     dE             d eps       ncg     rms          rms(c)
DAV:   1    -0.186349107019E+04    0.18937E-03   -0.21262E-02  1552   0.183E-01    0.373E-02
RMM:   2    -0.186349110647E+04   -0.36286E-04   -0.44311E-04  1081   0.253E-02
 127 F= -.18875006E+04 E0= -.18875006E+04  d E =0.183182E-03
quench:  g(F)=  0.228E-02 g(S)=  0.000E+00 dE (1.order)=-0.239E-01
 bond charge predicted
       N       E                     dE             d eps       ncg     rms          rms(c)
DAV:   1    -0.186349086255E+04    0.20763E-03   -0.22354E-02  1552   0.188E-01    0.385E-02
RMM:   2    -0.186349090071E+04   -0.38154E-04   -0.46666E-04  1088   0.259E-02
 128 F= -.18875004E+04 E0= -.18875004E+04  d E =0.185322E-03
quench:  g(F)=  0.227E-02 g(S)=  0.000E+00 dE (1.order)=-0.247E-01
 bond charge predicted
       N       E                     dE             d eps       ncg     rms          rms(c)
DAV:   1    -0.186349063080E+04    0.23176E-03   -0.23809E-02  1576   0.193E-01    0.398E-02
RMM:   2    -0.186349067218E+04   -0.41378E-04   -0.49956E-04  1106   0.267E-02
 129 F= -.18875002E+04 E0= -.18875002E+04  d E =0.194024E-03
quench:  g(F)=  0.231E-02 g(S)=  0.000E+00 dE (1.order)=-0.262E-01
 bond charge predicted
       N       E                     dE             d eps       ncg     rms          rms(c)
DAV:   1    -0.186349040353E+04    0.22726E-03   -0.23323E-02  1552   0.191E-01    0.400E-02
RMM:   2    -0.186349044377E+04   -0.40235E-04   -0.49289E-04  1106   0.265E-02
 130 F= -.18875000E+04 E0= -.18875000E+04  d E =0.203612E-03
quench:  g(F)=  0.231E-02 g(S)=  0.000E+00 dE (1.order)=-0.269E-01
 bond charge predicted
       N       E                     dE             d eps       ncg     rms          rms(c)
DAV:   1    -0.186349017763E+04    0.22591E-03   -0.23882E-02  1552   0.194E-01    0.407E-02
RMM:   2    -0.186349021896E+04   -0.41335E-04   -0.50082E-04  1118   0.268E-02
 131 F= -.18874998E+04 E0= -.18874998E+04  d E =0.202589E-03
quench:  g(F)=  0.251E-02 g(S)=  0.000E+00 dE (1.order)=-0.262E-01
 bond charge predicted
       N       E                     dE             d eps       ncg     rms          rms(c)
DAV:   1    -0.186348996353E+04    0.21410E-03   -0.23156E-02  1552   0.191E-01    0.409E-02
RMM:   2    -0.186349000327E+04   -0.39745E-04   -0.48639E-04  1104   0.265E-02
 132 F= -.18874996E+04 E0= -.18874996E+04  d E =0.198602E-03
quench:  g(F)=  0.283E-02 g(S)=  0.000E+00 dE (1.order)=-0.229E-01
 bond charge predicted
       N       E                     dE             d eps       ncg     rms          rms(c)
DAV:   1    -0.186348974688E+04    0.21664E-03   -0.23147E-02  1568   0.191E-01    0.410E-02
RMM:   2    -0.186348978754E+04   -0.40655E-04   -0.48987E-04  1104   0.266E-02
 133 F= -.18874994E+04 E0= -.18874994E+04  d E =0.172948E-03
quench:  g(F)=  0.230E-02 g(S)=  0.000E+00 dE (1.order)=-0.212E-01
 bond charge predicted
       N       E                     dE             d eps       ncg     rms          rms(c)
DAV:   1    -0.186348954855E+04    0.19834E-03   -0.21633E-02  1552   0.185E-01    0.387E-02
RMM:   2    -0.186348958587E+04   -0.37328E-04   -0.45655E-04  1085   0.257E-02
 134 F= -.18874992E+04 E0= -.18874992E+04  d E =0.164312E-03
quench:  g(F)=  0.228E-02 g(S)=  0.000E+00 dE (1.order)=-0.223E-01
 bond charge predicted
       N       E                     dE             d eps       ncg     rms          rms(c)
DAV:   1    -0.186348932322E+04    0.22532E-03   -0.21408E-02  1552   0.184E-01    0.376E-02
RMM:   2    -0.186348936028E+04   -0.37053E-04   -0.44729E-04  1082   0.253E-02
 135 F= -.18874991E+04 E0= -.18874991E+04  d E =0.171689E-03
quench:  g(F)=  0.233E-02 g(S)=  0.000E+00 dE (1.order)=-0.240E-01
 bond charge predicted
       N       E                     dE             d eps       ncg     rms          rms(c)
DAV:   1    -0.186348910682E+04    0.21640E-03   -0.21230E-02  1552   0.181E-01    0.375E-02
RMM:   2    -0.186348914243E+04   -0.35603E-04   -0.43607E-04  1076   0.249E-02
 136 F= -.18874989E+04 E0= -.18874989E+04  d E =0.187739E-03
quench:  g(F)=  0.238E-02 g(S)=  0.000E+00 dE (1.order)=-0.249E-01
 bond charge predicted
       N       E                     dE             d eps       ncg     rms          rms(c)
DAV:   1    -0.186348890210E+04    0.20472E-03   -0.22269E-02  1552   0.186E-01    0.392E-02
RMM:   2    -0.186348893954E+04   -0.37438E-04   -0.45676E-04  1087   0.254E-02
 137 F= -.18874987E+04 E0= -.18874987E+04  d E =0.189471E-03
quench:  g(F)=  0.284E-02 g(S)=  0.000E+00 dE (1.order)=-0.246E-01
 bond charge predicted
       N       E                     dE             d eps       ncg     rms          rms(c)
DAV:   1    -0.186348864384E+04    0.25826E-03   -0.23069E-02  1552   0.189E-01    0.403E-02
RMM:   2    -0.186348868329E+04   -0.39446E-04   -0.47734E-04  1100   0.260E-02
 138 F= -.18874985E+04 E0= -.18874985E+04  d E =0.193609E-03
quench:  g(F)=  0.247E-02 g(S)=  0.000E+00 dE (1.order)=-0.232E-01
 bond charge predicted
       N       E                     dE             d eps       ncg     rms          rms(c)
DAV:   1    -0.186348845625E+04    0.18759E-03   -0.24234E-02  1552   0.194E-01    0.405E-02
RMM:   2    -0.186348849838E+04   -0.42136E-04   -0.50879E-04  1111   0.269E-02
 139 F= -.18874983E+04 E0= -.18874983E+04  d E =0.177193E-03
quench:  g(F)=  0.249E-02 g(S)=  0.000E+00 dE (1.order)=-0.234E-01
 bond charge predicted
       N       E                     dE             d eps       ncg     rms          rms(c)
DAV:   1    -0.186348826911E+04    0.18714E-03   -0.24039E-02  1552   0.193E-01    0.411E-02
RMM:   2    -0.186348831068E+04   -0.41569E-04   -0.50562E-04  1106   0.267E-02
 140 F= -.18874981E+04 E0= -.18874981E+04  d E =0.169421E-03
quench:  g(F)=  0.258E-02 g(S)=  0.000E+00 dE (1.order)=-0.233E-01
 bond charge predicted
       N       E                     dE             d eps       ncg     rms          rms(c)
DAV:   1    -0.186348810871E+04    0.16040E-03   -0.21636E-02  1552   0.183E-01    0.403E-02
RMM:   2    -0.186348814596E+04   -0.37254E-04   -0.45149E-04  1079   0.253E-02
 141 F= -.18874980E+04 E0= -.18874980E+04  d E =0.171771E-03
quench:  g(F)=  0.272E-02 g(S)=  0.000E+00 dE (1.order)=-0.227E-01
 bond charge predicted
       N       E                     dE             d eps       ncg     rms          rms(c)
DAV:   1    -0.186348793780E+04    0.17091E-03   -0.21973E-02  1552   0.184E-01    0.386E-02
RMM:   2    -0.186348797474E+04   -0.36938E-04   -0.44753E-04  1067   0.251E-02
 142 F= -.18874978E+04 E0= -.18874978E+04  d E =0.161042E-03
quench:  g(F)=  0.314E-02 g(S)=  0.000E+00 dE (1.order)=-0.218E-01
 bond charge predicted
       N       E                     dE             d eps       ncg     rms          rms(c)
DAV:   1    -0.186348776069E+04    0.17711E-03   -0.22600E-02  1552   0.184E-01    0.385E-02
RMM:   2    -0.186348779872E+04   -0.38027E-04   -0.45842E-04  1075   0.250E-02
 143 F= -.18874976E+04 E0= -.18874976E+04  d E =0.165273E-03
quench:  g(F)=  0.272E-02 g(S)=  0.000E+00 dE (1.order)=-0.208E-01
 bond charge predicted
       N       E                     dE             d eps       ncg     rms          rms(c)
DAV:   1    -0.186348755985E+04    0.20084E-03   -0.24104E-02  1552   0.192E-01    0.401E-02
RMM:   2    -0.186348760144E+04   -0.41590E-04   -0.49623E-04  1101   0.262E-02
 144 F= -.18874975E+04 E0= -.18874975E+04  d E =0.194836E-03
quench:  g(F)=  0.248E-02 g(S)=  0.000E+00 dE (1.order)=-0.218E-01
 bond charge predicted
       N       E                     dE             d eps       ncg     rms          rms(c)
DAV:   1    -0.186348737485E+04    0.18500E-03   -0.23020E-02  1552   0.189E-01    0.414E-02
RMM:   2    -0.186348741447E+04   -0.39620E-04   -0.47776E-04  1086   0.260E-02
 145 F= -.18874973E+04 E0= -.18874973E+04  d E =0.179147E-03
quench:  g(F)=  0.260E-02 g(S)=  0.000E+00 dE (1.order)=-0.241E-01
 bond charge predicted
       N       E                     dE             d eps       ncg     rms          rms(c)
DAV:   1    -0.186348721344E+04    0.16141E-03   -0.22589E-02  1552   0.187E-01    0.398E-02
RMM:   2    -0.186348725215E+04   -0.38720E-04   -0.46583E-04  1083   0.256E-02
 146 F= -.18874971E+04 E0= -.18874971E+04  d E =0.176160E-03
quench:  g(F)=  0.307E-02 g(S)=  0.000E+00 dE (1.order)=-0.252E-01
 bond charge predicted
       N       E                     dE             d eps       ncg     rms          rms(c)
DAV:   1    -0.186348698424E+04    0.22920E-03   -0.22032E-02  1552   0.186E-01    0.411E-02
RMM:   2    -0.186348702245E+04   -0.38210E-04   -0.45766E-04  1084   0.255E-02
 147 F= -.18874969E+04 E0= -.18874969E+04  d E =0.178145E-03
quench:  g(F)=  0.347E-02 g(S)=  0.000E+00 dE (1.order)=-0.229E-01
 bond charge predicted
       N       E                     dE             d eps       ncg     rms          rms(c)
DAV:   1    -0.186348682534E+04    0.15889E-03   -0.20308E-02  1552   0.179E-01    0.429E-02
RMM:   2    -0.186348686115E+04   -0.35811E-04   -0.43368E-04  1069   0.248E-02
 148 F= -.18874967E+04 E0= -.18874967E+04  d E =0.176083E-03
quench:  g(F)=  0.245E-02 g(S)=  0.000E+00 dE (1.order)=-0.211E-01
 bond charge predicted
       N       E                     dE             d eps       ncg     rms          rms(c)
DAV:   1    -0.186348663041E+04    0.19493E-03   -0.17324E-02  1600   0.166E-01    0.392E-02
RMM:   2    -0.186348666135E+04   -0.30935E-04   -0.36784E-04  1036   0.229E-02
 149 F= -.18874966E+04 E0= -.18874966E+04  d E =0.162864E-03
quench:  g(F)=  0.252E-02 g(S)=  0.000E+00 dE (1.order)=-0.218E-01
 bond charge predicted
       N       E                     dE             d eps       ncg     rms          rms(c)
DAV:   1    -0.186348646371E+04    0.16670E-03   -0.15242E-02  1552   0.154E-01    0.357E-02
RMM:   2    -0.186348648963E+04   -0.25912E-04   -0.31399E-04  1001   0.211E-02
 150 F= -.18874964E+04 E0= -.18874964E+04  d E =0.160143E-03
quench:  g(F)=  0.269E-02 g(S)=  0.000E+00 dE (1.order)=-0.221E-01
 bond charge predicted
       N       E                     dE             d eps       ncg     rms          rms(c)
DAV:   1    -0.186348627940E+04    0.18431E-03   -0.15283E-02  1552   0.152E-01    0.334E-02
RMM:   2    -0.186348630539E+04   -0.25993E-04   -0.30933E-04   993   0.207E-02
 151 F= -.18874963E+04 E0= -.18874963E+04  d E =0.158913E-03
quench:  g(F)=  0.378E-02 g(S)=  0.000E+00 dE (1.order)=-0.211E-01
 bond charge predicted
       N       E                     dE             d eps       ncg     rms          rms(c)
DAV:   1    -0.186348609401E+04    0.18539E-03   -0.17424E-02  1552   0.161E-01    0.347E-02
RMM:   2    -0.186348612300E+04   -0.28989E-04   -0.34981E-04  1020   0.219E-02
 152 F= -.18874961E+04 E0= -.18874961E+04  d E =0.175188E-03
quench:  g(F)=  0.257E-02 g(S)=  0.000E+00 dE (1.order)=-0.184E-01
 bond charge predicted
       N       E                     dE             d eps       ncg     rms          rms(c)
DAV:   1    -0.186348591309E+04    0.18092E-03   -0.19176E-02  1552   0.170E-01    0.353E-02
RMM:   2    -0.186348594558E+04   -0.32485E-04   -0.38862E-04  1038   0.231E-02
 153 F= -.18874959E+04 E0= -.18874959E+04  d E =0.169137E-03
quench:  g(F)=  0.240E-02 g(S)=  0.000E+00 dE (1.order)=-0.198E-01
 bond charge predicted
       N       E                     dE             d eps       ncg     rms          rms(c)
DAV:   1    -0.186348573089E+04    0.18220E-03   -0.18974E-02  1552   0.169E-01    0.366E-02
RMM:   2    -0.186348576308E+04   -0.32188E-04   -0.38712E-04  1034   0.231E-02
 154 F= -.18874957E+04 E0= -.18874957E+04  d E =0.189244E-03
quench:  g(F)=  0.261E-02 g(S)=  0.000E+00 dE (1.order)=-0.214E-01
 bond charge predicted
       N       E                     dE             d eps       ncg     rms          rms(c)
DAV:   1    -0.186348554738E+04    0.18352E-03   -0.16835E-02  1552   0.160E-01    0.371E-02
RMM:   2    -0.186348557615E+04   -0.28776E-04   -0.35105E-04  1015   0.222E-02
 155 F= -.18874955E+04 E0= -.18874955E+04  d E =0.193272E-03
quench:  g(F)=  0.317E-02 g(S)=  0.000E+00 dE (1.order)=-0.211E-01
 bond charge predicted
       N       E                     dE             d eps       ncg     rms          rms(c)
DAV:   1    -0.186348536217E+04    0.18521E-03   -0.16712E-02  1560   0.159E-01    0.375E-02
RMM:   2    -0.186348539065E+04   -0.28482E-04   -0.34638E-04  1008   0.219E-02
 156 F= -.18874954E+04 E0= -.18874954E+04  d E =0.181827E-03
quench:  g(F)=  0.326E-02 g(S)=  0.000E+00 dE (1.order)=-0.191E-01
 bond charge predicted
       N       E                     dE             d eps       ncg     rms          rms(c)
DAV:   1    -0.186348518184E+04    0.18033E-03   -0.15654E-02  1560   0.154E-01    0.374E-02
RMM:   2    -0.186348520856E+04   -0.26721E-04   -0.32436E-04   992   0.213E-02
 157 F= -.18874952E+04 E0= -.18874952E+04  d E =0.167843E-03
quench:  g(F)=  0.257E-02 g(S)=  0.000E+00 dE (1.order)=-0.180E-01
 bond charge predicted
       N       E                     dE             d eps       ncg     rms          rms(c)
DAV:   1    -0.186348497106E+04    0.21077E-03   -0.14523E-02  1584   0.148E-01    0.347E-02
RMM:   2    -0.186348499582E+04   -0.24752E-04   -0.29859E-04   986   0.203E-02
 158 F= -.18874950E+04 E0= -.18874950E+04  d E =0.181276E-03
quench:  g(F)=  0.255E-02 g(S)=  0.000E+00 dE (1.order)=-0.188E-01
 bond charge predicted
       N       E                     dE             d eps       ncg     rms          rms(c)
DAV:   1    -0.186348475129E+04    0.21978E-03   -0.14897E-02  1560   0.148E-01    0.329E-02
RMM:   2    -0.186348477614E+04   -0.24849E-04   -0.29795E-04   979   0.201E-02
 159 F= -.18874948E+04 E0= -.18874948E+04  d E =0.209837E-03
quench:  g(F)=  0.292E-02 g(S)=  0.000E+00 dE (1.order)=-0.199E-01
 bond charge predicted
       N       E                     dE             d eps       ncg     rms          rms(c)
DAV:   1    -0.186348451122E+04    0.24006E-03   -0.16214E-02  1552   0.155E-01    0.349E-02
RMM:   2    -0.186348453822E+04   -0.26997E-04   -0.32951E-04  1004   0.212E-02
 160 F= -.18874946E+04 E0= -.18874946E+04  d E =0.226826E-03
quench:  g(F)=  0.355E-02 g(S)=  0.000E+00 dE (1.order)=-0.198E-01
 bond charge predicted
       N       E                     dE             d eps       ncg     rms          rms(c)
DAV:   1    -0.186348428624E+04    0.22498E-03   -0.16155E-02  1552   0.156E-01    0.343E-02
RMM:   2    -0.186348431345E+04   -0.27210E-04   -0.32750E-04  1003   0.212E-02
 161 F= -.18874943E+04 E0= -.18874943E+04  d E =0.221076E-03
quench:  g(F)=  0.286E-02 g(S)=  0.000E+00 dE (1.order)=-0.188E-01
 bond charge predicted
       N       E                     dE             d eps       ncg     rms          rms(c)
DAV:   1    -0.186348403446E+04    0.25178E-03   -0.16651E-02  1552   0.158E-01    0.351E-02
RMM:   2    -0.186348406264E+04   -0.28184E-04   -0.33845E-04  1007   0.215E-02
 162 F= -.18874941E+04 E0= -.18874941E+04  d E =0.222046E-03
quench:  g(F)=  0.261E-02 g(S)=  0.000E+00 dE (1.order)=-0.194E-01
 bond charge predicted
       N       E                     dE             d eps       ncg     rms          rms(c)
DAV:   1    -0.186348381304E+04    0.22142E-03   -0.16338E-02  1552   0.158E-01    0.355E-02
RMM:   2    -0.186348384067E+04   -0.27639E-04   -0.33144E-04   997   0.215E-02
 163 F= -.18874939E+04 E0= -.18874939E+04  d E =0.208340E-03
quench:  g(F)=  0.287E-02 g(S)=  0.000E+00 dE (1.order)=-0.203E-01
 bond charge predicted
       N       E                     dE             d eps       ncg     rms          rms(c)
DAV:   1    -0.186348357956E+04    0.23347E-03   -0.14879E-02  1552   0.149E-01    0.327E-02
RMM:   2    -0.186348360470E+04   -0.25140E-04   -0.30296E-04   987   0.204E-02
 164 F= -.18874937E+04 E0= -.18874937E+04  d E =0.228959E-03
quench:  g(F)=  0.351E-02 g(S)=  0.000E+00 dE (1.order)=-0.199E-01
 bond charge predicted
       N       E                     dE             d eps       ncg     rms          rms(c)
DAV:   1    -0.186348331787E+04    0.26169E-03   -0.15874E-02  1568   0.155E-01    0.337E-02
RMM:   2    -0.186348334448E+04   -0.26604E-04   -0.32115E-04  1004   0.211E-02
 165 F= -.18874935E+04 E0= -.18874935E+04  d E =0.233606E-03
quench:  g(F)=  0.314E-02 g(S)=  0.000E+00 dE (1.order)=-0.179E-01
 bond charge predicted
       N       E                     dE             d eps       ncg     rms          rms(c)
DAV:   1    -0.186348306071E+04    0.25716E-03   -0.15121E-02  1552   0.151E-01    0.323E-02
RMM:   2    -0.186348308649E+04   -0.25777E-04   -0.30948E-04   992   0.207E-02
 166 F= -.18874932E+04 E0= -.18874932E+04  d E =0.230380E-03
quench:  g(F)=  0.254E-02 g(S)=  0.000E+00 dE (1.order)=-0.178E-01
 bond charge predicted
       N       E                     dE             d eps       ncg     rms          rms(c)
DAV:   1    -0.186348281317E+04    0.24754E-03   -0.15068E-02  1552   0.149E-01    0.306E-02
RMM:   2    -0.186348283789E+04   -0.24726E-04   -0.29759E-04   982   0.199E-02
 167 F= -.18874930E+04 E0= -.18874930E+04  d E =0.239540E-03
quench:  g(F)=  0.266E-02 g(S)=  0.000E+00 dE (1.order)=-0.193E-01
 bond charge predicted
       N       E                     dE             d eps       ncg     rms          rms(c)
DAV:   1    -0.186348251063E+04    0.30254E-03   -0.17124E-02  1552   0.158E-01    0.318E-02
RMM:   2    -0.186348253895E+04   -0.28320E-04   -0.34145E-04  1010   0.211E-02
 168 F= -.18874927E+04 E0= -.18874927E+04  d E =0.260643E-03
quench:  g(F)=  0.330E-02 g(S)=  0.000E+00 dE (1.order)=-0.200E-01
 bond charge predicted
       N       E                     dE             d eps       ncg     rms          rms(c)
DAV:   1    -0.186348221508E+04    0.29554E-03   -0.19392E-02  1552   0.172E-01    0.349E-02
RMM:   2    -0.186348224843E+04   -0.33349E-04   -0.40216E-04  1048   0.235E-02
 169 F= -.18874925E+04 E0= -.18874925E+04  d E =0.255281E-03
quench:  g(F)=  0.340E-02 g(S)=  0.000E+00 dE (1.order)=-0.182E-01
 bond charge predicted
       N       E                     dE             d eps       ncg     rms          rms(c)
DAV:   1    -0.186348196981E+04    0.24527E-03   -0.17224E-02  1552   0.163E-01    0.373E-02
RMM:   2    -0.186348199987E+04   -0.30060E-04   -0.36558E-04  1021   0.226E-02
 170 F= -.18874922E+04 E0= -.18874922E+04  d E =0.224056E-03
quench:  g(F)=  0.236E-02 g(S)=  0.000E+00 dE (1.order)=-0.175E-01
 bond charge predicted
       N       E                     dE             d eps       ncg     rms          rms(c)
DAV:   1    -0.186348174266E+04    0.22715E-03   -0.13757E-02  1568   0.146E-01    0.340E-02
RMM:   2    -0.186348176636E+04   -0.23699E-04   -0.28697E-04   975   0.201E-02
 171 F= -.18874921E+04 E0= -.18874921E+04  d E =0.188865E-03
quench:  g(F)=  0.238E-02 g(S)=  0.000E+00 dE (1.order)=-0.188E-01
 bond charge predicted
       N       E                     dE             d eps       ncg     rms          rms(c)
DAV:   1    -0.186348153491E+04    0.20776E-03   -0.13766E-02  1576   0.143E-01    0.307E-02
RMM:   2    -0.186348155826E+04   -0.23350E-04   -0.27820E-04   973   0.194E-02
 172 F= -.18874918E+04 E0= -.18874918E+04  d E =0.205023E-03
quench:  g(F)=  0.299E-02 g(S)=  0.000E+00 dE (1.order)=-0.197E-01
 bond charge predicted
       N       E                     dE             d eps       ncg     rms          rms(c)
DAV:   1    -0.186348132451E+04    0.21040E-03   -0.13848E-02  1552   0.144E-01    0.326E-02
RMM:   2    -0.186348134798E+04   -0.23475E-04   -0.28368E-04   979   0.196E-02
 173 F= -.18874916E+04 E0= -.18874916E+04  d E =0.207709E-03
quench:  g(F)=  0.373E-02 g(S)=  0.000E+00 dE (1.order)=-0.177E-01
 bond charge predicted
       N       E                     dE             d eps       ncg     rms          rms(c)
DAV:   1    -0.186348107439E+04    0.25011E-03   -0.13511E-02  1536   0.143E-01    0.318E-02
RMM:   2    -0.186348109759E+04   -0.23201E-04   -0.27678E-04   972   0.194E-02
 174 F= -.18874914E+04 E0= -.18874914E+04  d E =0.202102E-03
quench:  g(F)=  0.214E-02 g(S)=  0.000E+00 dE (1.order)=-0.165E-01
 bond charge predicted
       N       E                     dE             d eps       ncg     rms          rms(c)
DAV:   1    -0.186348084924E+04    0.22515E-03   -0.12824E-02  1528   0.138E-01    0.311E-02
RMM:   2    -0.186348087120E+04   -0.21956E-04   -0.26166E-04   959   0.188E-02
 175 F= -.18874912E+04 E0= -.18874912E+04  d E =0.195478E-03
quench:  g(F)=  0.215E-02 g(S)=  0.000E+00 dE (1.order)=-0.183E-01
 bond charge predicted
       N       E                     dE             d eps       ncg     rms          rms(c)
DAV:   1    -0.186348060659E+04    0.24265E-03   -0.12919E-02  1528   0.138E-01    0.299E-02
RMM:   2    -0.186348062893E+04   -0.22341E-04   -0.26178E-04   961   0.188E-02
 176 F= -.18874910E+04 E0= -.18874910E+04  d E =0.199818E-03
quench:  g(F)=  0.243E-02 g(S)=  0.000E+00 dE (1.order)=-0.196E-01
 bond charge predicted
       N       E                     dE             d eps       ncg     rms          rms(c)
DAV:   1    -0.186348039026E+04    0.21633E-03   -0.12506E-02  1560   0.138E-01    0.303E-02
RMM:   2    -0.186348041127E+04   -0.21013E-04   -0.25341E-04   958   0.187E-02
 177 F= -.18874908E+04 E0= -.18874908E+04  d E =0.206756E-03
quench:  g(F)=  0.409E-02 g(S)=  0.000E+00 dE (1.order)=-0.187E-01
 bond charge predicted
       N       E                     dE             d eps       ncg     rms          rms(c)
DAV:   1    -0.186348011406E+04    0.27620E-03   -0.11290E-02  1576   0.132E-01    0.287E-02
RMM:   2    -0.186348013330E+04   -0.19247E-04   -0.22948E-04   942   0.180E-02
 178 F= -.18874906E+04 E0= -.18874906E+04  d E =0.221474E-03
quench:  g(F)=  0.205E-02 g(S)=  0.000E+00 dE (1.order)=-0.152E-01
 bond charge predicted
       N       E                     dE             d eps       ncg     rms          rms(c)
DAV:   1    -0.186347985995E+04    0.25411E-03   -0.11627E-02  1552   0.133E-01    0.272E-02
RMM:   2    -0.186347987937E+04   -0.19421E-04   -0.23258E-04   936   0.180E-02
 179 F= -.18874904E+04 E0= -.18874904E+04  d E =0.226042E-03
quench:  g(F)=  0.200E-02 g(S)=  0.000E+00 dE (1.order)=-0.158E-01
 bond charge predicted
       N       E                     dE             d eps       ncg     rms          rms(c)
DAV:   1    -0.186347960410E+04    0.25584E-03   -0.11741E-02  1544   0.133E-01    0.278E-02
RMM:   2    -0.186347962400E+04   -0.19892E-04   -0.23863E-04   946   0.182E-02
 180 F= -.18874902E+04 E0= -.18874902E+04  d E =0.213303E-03
quench:  g(F)=  0.224E-02 g(S)=  0.000E+00 dE (1.order)=-0.164E-01
 bond charge predicted
       N       E                     dE             d eps       ncg     rms          rms(c)
DAV:   1    -0.186347937271E+04    0.23140E-03   -0.11960E-02  1536   0.135E-01    0.271E-02
RMM:   2    -0.186347939285E+04   -0.20141E-04   -0.24173E-04   950   0.184E-02
 181 F= -.18874900E+04 E0= -.18874900E+04  d E =0.204574E-03
quench:  g(F)=  0.306E-02 g(S)=  0.000E+00 dE (1.order)=-0.157E-01
 bond charge predicted
       N       E                     dE             d eps       ncg     rms          rms(c)
DAV:   1    -0.186347913641E+04    0.23630E-03   -0.10987E-02  1544   0.130E-01    0.274E-02
RMM:   2    -0.186347915443E+04   -0.18023E-04   -0.22154E-04   945   0.178E-02
 182 F= -.18874898E+04 E0= -.18874898E+04  d E =0.214611E-03
quench:  g(F)=  0.196E-02 g(S)=  0.000E+00 dE (1.order)=-0.135E-01
 bond charge predicted
       N       E                     dE             d eps       ncg     rms          rms(c)
DAV:   1    -0.186347888543E+04    0.25098E-03   -0.10796E-02  1528   0.129E-01    0.277E-02
RMM:   2    -0.186347890356E+04   -0.18135E-04   -0.21768E-04   940   0.177E-02
 183 F= -.18874895E+04 E0= -.18874895E+04  d E =0.217825E-03
quench:  g(F)=  0.186E-02 g(S)=  0.000E+00 dE (1.order)=-0.138E-01
 bond charge predicted
       N       E                     dE             d eps       ncg     rms          rms(c)
DAV:   1    -0.186347864091E+04    0.24451E-03   -0.10672E-02  1584   0.128E-01    0.267E-02
RMM:   2    -0.186347865867E+04   -0.17758E-04   -0.21299E-04   934   0.174E-02
 184 F= -.18874893E+04 E0= -.18874893E+04  d E =0.203245E-03
quench:  g(F)=  0.204E-02 g(S)=  0.000E+00 dE (1.order)=-0.142E-01
 bond charge predicted
       N       E                     dE             d eps       ncg     rms          rms(c)
DAV:   1    -0.186347841890E+04    0.22201E-03   -0.11083E-02  1536   0.130E-01    0.260E-02
RMM:   2    -0.186347843761E+04   -0.18708E-04   -0.22109E-04   934   0.177E-02
 185 F= -.18874891E+04 E0= -.18874891E+04  d E =0.195662E-03
quench:  g(F)=  0.252E-02 g(S)=  0.000E+00 dE (1.order)=-0.137E-01
 bond charge predicted
       N       E                     dE             d eps       ncg     rms          rms(c)
DAV:   1    -0.186347819057E+04    0.22833E-03   -0.11334E-02  1552   0.132E-01    0.279E-02
RMM:   2    -0.186347820975E+04   -0.19185E-04   -0.22878E-04   950   0.180E-02
 186 F= -.18874890E+04 E0= -.18874890E+04  d E =0.183901E-03
quench:  g(F)=  0.186E-02 g(S)=  0.000E+00 dE (1.order)=-0.121E-01
 bond charge predicted
       N       E                     dE             d eps       ncg     rms          rms(c)
DAV:   1    -0.186347801442E+04    0.17615E-03   -0.10696E-02  1584   0.129E-01    0.265E-02
RMM:   2    -0.186347803275E+04   -0.18334E-04   -0.21651E-04   941   0.176E-02
 187 F= -.18874888E+04 E0= -.18874888E+04  d E =0.158198E-03
quench:  g(F)=  0.172E-02 g(S)=  0.000E+00 dE (1.order)=-0.123E-01
 bond charge predicted
       N       E                     dE             d eps       ncg     rms          rms(c)
DAV:   1    -0.186347784769E+04    0.16673E-03   -0.98076E-03  1560   0.124E-01    0.256E-02
RMM:   2    -0.186347786412E+04   -0.16431E-04   -0.19986E-04   925   0.171E-02
 188 F= -.18874886E+04 E0= -.18874886E+04  d E =0.150408E-03
quench:  g(F)=  0.183E-02 g(S)=  0.000E+00 dE (1.order)=-0.123E-01
 bond charge predicted
       N       E                     dE             d eps       ncg     rms          rms(c)
DAV:   1    -0.186347771743E+04    0.13027E-03   -0.89440E-03  1536   0.119E-01    0.233E-02
RMM:   2    -0.186347773296E+04   -0.15536E-04   -0.18248E-04   917   0.165E-02
 189 F= -.18874885E+04 E0= -.18874885E+04  d E =0.125488E-03
quench:  g(F)=  0.218E-02 g(S)=  0.000E+00 dE (1.order)=-0.119E-01
 bond charge predicted
       N       E                     dE             d eps       ncg     rms          rms(c)
DAV:   1    -0.186347755415E+04    0.16328E-03   -0.82473E-03  1552   0.114E-01    0.223E-02
RMM:   2    -0.186347756816E+04   -0.14012E-04   -0.16742E-04   900   0.157E-02
 190 F= -.18874884E+04 E0= -.18874884E+04  d E =0.129248E-03
quench:  g(F)=  0.176E-02 g(S)=  0.000E+00 dE (1.order)=-0.107E-01
 bond charge predicted
       N       E                     dE             d eps       ncg     rms          rms(c)
DAV:   1    -0.186347742894E+04    0.12521E-03   -0.79344E-03  1536   0.112E-01    0.228E-02
RMM:   2    -0.186347744243E+04   -0.13496E-04   -0.16336E-04   894   0.156E-02
 191 F= -.18874883E+04 E0= -.18874883E+04  d E =0.113057E-03
quench:  g(F)=  0.159E-02 g(S)=  0.000E+00 dE (1.order)=-0.108E-01
 bond charge predicted
       N       E                     dE             d eps       ncg     rms          rms(c)
DAV:   1    -0.186347730958E+04    0.11936E-03   -0.72986E-03  1512   0.107E-01    0.208E-02
RMM:   2    -0.186347732189E+04   -0.12311E-04   -0.14580E-04   876   0.148E-02
 192 F= -.18874882E+04 E0= -.18874882E+04  d E =0.102344E-03
quench:  g(F)=  0.169E-02 g(S)=  0.000E+00 dE (1.order)=-0.112E-01
 bond charge predicted
       N       E                     dE             d eps       ncg     rms          rms(c)
DAV:   1    -0.186347720625E+04    0.10332E-03   -0.72076E-03  1536   0.105E-01    0.202E-02
RMM:   2    -0.186347721813E+04   -0.11877E-04   -0.14287E-04   864   0.144E-02
 193 F= -.18874881E+04 E0= -.18874881E+04  d E =0.987569E-04
quench:  g(F)=  0.196E-02 g(S)=  0.000E+00 dE (1.order)=-0.109E-01
 bond charge predicted
       N       E                     dE             d eps       ncg     rms          rms(c)
DAV:   1    -0.186347706237E+04    0.14389E-03   -0.75744E-03  1512   0.109E-01    0.207E-02
RMM:   2    -0.186347707518E+04   -0.12810E-04   -0.15151E-04   864   0.148E-02
 194 F= -.18874880E+04 E0= -.18874880E+04  d E =0.108627E-03
quench:  g(F)=  0.175E-02 g(S)=  0.000E+00 dE (1.order)=-0.994E-02
 bond charge predicted
       N       E                     dE             d eps       ncg     rms          rms(c)
DAV:   1    -0.186347698016E+04    0.82210E-04   -0.70847E-03  1512   0.106E-01    0.209E-02
RMM:   2    -0.186347699194E+04   -0.11783E-04   -0.14232E-04   876   0.146E-02
 195 F= -.18874879E+04 E0= -.18874879E+04  d E =0.888099E-04
quench:  g(F)=  0.146E-02 g(S)=  0.000E+00 dE (1.order)=-0.967E-02
 bond charge predicted
       N       E                     dE             d eps       ncg     rms          rms(c)
DAV:   1    -0.186347683783E+04    0.14233E-03   -0.63719E-03  1552   0.996E-02    0.195E-02
RMM:   2    -0.186347684850E+04   -0.10674E-04   -0.12695E-04   862   0.136E-02
 196 F= -.18874878E+04 E0= -.18874878E+04  d E =0.977625E-04
quench:  g(F)=  0.150E-02 g(S)=  0.000E+00 dE (1.order)=-0.996E-02
 bond charge predicted
       N       E                     dE             d eps       ncg     rms          rms(c)
DAV:   1    -0.186347674379E+04    0.94037E-04   -0.66286E-03  1512   0.102E-01    0.204E-02
RMM:   2    -0.186347675474E+04   -0.10948E-04   -0.13367E-04   874   0.140E-02
 197 F= -.18874877E+04 E0= -.18874877E+04  d E =0.105611E-03
quench:  g(F)=  0.173E-02 g(S)=  0.000E+00 dE (1.order)=-0.990E-02
 bond charge predicted
       N       E                     dE             d eps       ncg     rms          rms(c)
DAV:   1    -0.186347662591E+04    0.11788E-03   -0.62026E-03  1512   0.987E-02    0.194E-02
RMM:   2    -0.186347663652E+04   -0.10613E-04   -0.12610E-04   860   0.136E-02
 198 F= -.18874876E+04 E0= -.18874876E+04  d E =0.902513E-04
quench:  g(F)=  0.164E-02 g(S)=  0.000E+00 dE (1.order)=-0.908E-02
 bond charge predicted
       N       E                     dE             d eps       ncg     rms          rms(c)
DAV:   1    -0.186347652750E+04    0.98409E-04   -0.61501E-03  1520   0.988E-02    0.194E-02
RMM:   2    -0.186347653809E+04   -0.10591E-04   -0.12544E-04   876   0.136E-02
 199 F= -.18874875E+04 E0= -.18874875E+04  d E =0.866557E-04
quench:  g(F)=  0.137E-02 g(S)=  0.000E+00 dE (1.order)=-0.887E-02
 bond charge predicted
       N       E                     dE             d eps       ncg     rms          rms(c)
DAV:   1    -0.186347645471E+04    0.72783E-04   -0.53650E-03  1560   0.928E-02    0.188E-02
RMM:   2    -0.186347646412E+04   -0.94085E-05   -0.11067E-04   833   0.130E-02
 200 F= -.18874874E+04 E0= -.18874874E+04  d E =0.692639E-04
quench:  g(F)=  0.138E-02 g(S)=  0.000E+00 dE (1.order)=-0.929E-02
