 vasp.5.4.4.18Apr17-6-g9f103f2a35 (build Oct 20 2021 08:33:53) complex           
 executed on             LinuxGNU date 2024.06.05  09:03:23
 running on   64 total cores
 each image running on    8 cores
 distrk:  each k-point on    8 cores,    1 groups
 distr:  one band on NCORES_PER_BAND=   4 cores,    2 groups


--------------------------------------------------------------------------------------------------------


 INCAR:
 POTCAR:    PAW_PBE C 08Apr2002                   
 POTCAR:    PAW_PBE H 15Jun2001                   
 POTCAR:    PAW_PBE O 08Apr2002                   
 POTCAR:    PAW_PBE Si 05Jan2001                  
 POTCAR:    PAW_PBE W 08Apr2002                   
 POTCAR:    PAW_PBE C 08Apr2002                   
   VRHFIN =C: s2p2                                                              
   LEXCH  = PE                                                                  
   EATOM  =   147.1560 eV,   10.8157 Ry                                         
                                                                                
   TITEL  = PAW_PBE C 08Apr2002                                                 
   LULTRA =        F    use ultrasoft PP ?                                      
   IUNSCR =        1    unscreen: 0-lin 1-nonlin 2-no                           
   RPACOR =    1.200    partial core radius                                     
   POMASS =   12.011; ZVAL   =    4.000    mass and valenz                      
   RCORE  =    1.500    outmost cutoff radius                                   
   RWIGS  =    1.630; RWIGS  =    0.863    wigner-seitz radius (au A)           
   ENMAX  =  400.000; ENMIN  =  300.000 eV                                      
   ICORE  =        2    local potential                                         
   LCOR   =        T    correct aug charges                                     
   LPAW   =        T    paw PP                                                  
   EAUG   =  644.873                                                            
   DEXC   =    0.000                                                            
   RMAX   =    1.529    core radius for proj-oper                               
   RAUG   =    1.300    factor for augmentation sphere                          
   RDEP   =    1.501    radius for radial grids                                 
   RDEPT  =    1.300    core radius for aug-charge                              
                                                                                
   Atomic configuration                                                         
    4 entries                                                                   
     n  l   j            E        occ.                                          
     1  0  0.50      -273.3789   2.0000                                         
     2  0  0.50       -13.7508   2.0000                                         
     2  1  0.50        -5.2854   2.0000                                         
     3  2  1.50        -5.4423   0.0000                                         
   Description                                                                  
     l       E           TYP  RCUT    TYP  RCUT                                 
     0    -13.7508458     23  1.200                                             
     0     -8.2022199     23  1.200                                             
     1     -5.2854383     23  1.500                                             
     1     34.0145650     23  1.500                                             
     2     -5.4423304      7  1.500                                             
  local pseudopotential read in
  partial core-charges read in
  partial kinetic energy density read in
  atomic valenz-charges read in
  non local Contribution for L=           0  read in
    real space projection operators read in
  non local Contribution for L=           0  read in
    real space projection operators read in
  non local Contribution for L=           1  read in
    real space projection operators read in
  non local Contribution for L=           1  read in
    real space projection operators read in
    PAW grid and wavefunctions read in

   number of l-projection  operators is LMAX  =           4
   number of lm-projection operators is LMMAX =           8

 POTCAR:    PAW_PBE H 15Jun2001                   
   VRHFIN =H: ultrasoft test                                                    
   LEXCH  = PE                                                                  
   EATOM  =    12.4884 eV,    0.9179 Ry                                         
                                                                                
   TITEL  = PAW_PBE H 15Jun2001                                                 
   LULTRA =        F    use ultrasoft PP ?                                      
   IUNSCR =        0    unscreen: 0-lin 1-nonlin 2-no                           
   RPACOR =    0.000    partial core radius                                     
   POMASS =    1.000; ZVAL   =    1.000    mass and valenz                      
   RCORE  =    1.100    outmost cutoff radius                                   
   RWIGS  =    0.700; RWIGS  =    0.370    wigner-seitz radius (au A)           
   ENMAX  =  250.000; ENMIN  =  200.000 eV                                      
   RCLOC  =    0.701    cutoff for local pot                                    
   LCOR   =        T    correct aug charges                                     
   LPAW   =        T    paw PP                                                  
   EAUG   =  400.000                                                            
   RMAX   =    1.123    core radius for proj-oper                               
   RAUG   =    1.200    factor for augmentation sphere                          
   RDEP   =    1.112    radius for radial grids                                 
   RDEPT  =    0.926    core radius for aug-charge                              
                                                                                
   Atomic configuration                                                         
    2 entries                                                                   
     n  l   j            E        occ.                                          
     1  0  0.50        -6.4927   1.0000                                         
     2  1  0.50        -3.4015   0.0000                                         
   Description                                                                  
     l       E           TYP  RCUT    TYP  RCUT                                 
     0     -6.4927494     23  1.100                                             
     0      6.8029130     23  1.100                                             
     1     -4.0817478     23  1.100                                             
  local pseudopotential read in
  atomic valenz-charges read in
  non local Contribution for L=           0  read in
    real space projection operators read in
  non local Contribution for L=           0  read in
    real space projection operators read in
  non local Contribution for L=           1  read in
    real space projection operators read in
    PAW grid and wavefunctions read in

   number of l-projection  operators is LMAX  =           3
   number of lm-projection operators is LMMAX =           5

 POTCAR:    PAW_PBE O 08Apr2002                   
   VRHFIN =O: s2p4                                                              
   LEXCH  = PE                                                                  
   EATOM  =   432.3788 eV,   31.7789 Ry                                         
                                                                                
   TITEL  = PAW_PBE O 08Apr2002                                                 
   LULTRA =        F    use ultrasoft PP ?                                      
   IUNSCR =        1    unscreen: 0-lin 1-nonlin 2-no                           
   RPACOR =    1.200    partial core radius                                     
   POMASS =   16.000; ZVAL   =    6.000    mass and valenz                      
   RCORE  =    1.520    outmost cutoff radius                                   
   RWIGS  =    1.550; RWIGS  =    0.820    wigner-seitz radius (au A)           
   ENMAX  =  400.000; ENMIN  =  300.000 eV                                      
   ICORE  =        2    local potential                                         
   LCOR   =        T    correct aug charges                                     
   LPAW   =        T    paw PP                                                  
   EAUG   =  605.392                                                            
   DEXC   =    0.000                                                            
   RMAX   =    1.553    core radius for proj-oper                               
   RAUG   =    1.300    factor for augmentation sphere                          
   RDEP   =    1.550    radius for radial grids                                 
   RDEPT  =    1.329    core radius for aug-charge                              
                                                                                
   Atomic configuration                                                         
    4 entries                                                                   
     n  l   j            E        occ.                                          
     1  0  0.50      -514.6923   2.0000                                         
     2  0  0.50       -23.9615   2.0000                                         
     2  1  0.50        -9.0305   4.0000                                         
     3  2  1.50        -9.5241   0.0000                                         
   Description                                                                  
     l       E           TYP  RCUT    TYP  RCUT                                 
     0    -23.9615318     23  1.200                                             
     0     -9.5240782     23  1.200                                             
     1     -9.0304911     23  1.520                                             
     1      8.1634956     23  1.520                                             
     2     -9.5240782      7  1.500                                             
  local pseudopotential read in
  partial core-charges read in
  partial kinetic energy density read in
  kinetic energy density of atom read in
  atomic valenz-charges read in
  non local Contribution for L=           0  read in
    real space projection operators read in
  non local Contribution for L=           0  read in
    real space projection operators read in
  non local Contribution for L=           1  read in
    real space projection operators read in
  non local Contribution for L=           1  read in
    real space projection operators read in
    PAW grid and wavefunctions read in

   number of l-projection  operators is LMAX  =           4
   number of lm-projection operators is LMMAX =           8

 POTCAR:    PAW_PBE Si 05Jan2001                  
   VRHFIN =Si: s2p2                                                             
   LEXCH  = PE                                                                  
   EATOM  =   103.0669 eV,    7.5752 Ry                                         
                                                                                
   TITEL  = PAW_PBE Si 05Jan2001                                                
   LULTRA =        F    use ultrasoft PP ?                                      
   IUNSCR =        1    unscreen: 0-lin 1-nonlin 2-no                           
   RPACOR =    1.500    partial core radius                                     
   POMASS =   28.085; ZVAL   =    4.000    mass and valenz                      
   RCORE  =    1.900    outmost cutoff radius                                   
   RWIGS  =    2.480; RWIGS  =    1.312    wigner-seitz radius (au A)           
   ENMAX  =  245.345; ENMIN  =  184.009 eV                                      
   ICORE  =        2    local potential                                         
   LCOR   =        T    correct aug charges                                     
   LPAW   =        T    paw PP                                                  
   EAUG   =  322.069                                                            
   DEXC   =    0.000                                                            
   RMAX   =    1.950    core radius for proj-oper                               
   RAUG   =    1.300    factor for augmentation sphere                          
   RDEP   =    1.993    radius for radial grids                                 
   RDEPT  =    1.837    core radius for aug-charge                              
                                                                                
   Atomic configuration                                                         
    6 entries                                                                   
     n  l   j            E        occ.                                          
     1  0  0.50     -1785.8828   2.0000                                         
     2  0  0.50      -139.4969   2.0000                                         
     2  1  1.50       -95.5546   6.0000                                         
     3  0  0.50       -10.8127   2.0000                                         
     3  1  0.50        -4.0811   2.0000                                         
     3  2  1.50        -4.0817   0.0000                                         
   Description                                                                  
     l       E           TYP  RCUT    TYP  RCUT                                 
     0    -10.8127223     23  1.900                                             
     0     -7.6451159     23  1.900                                             
     1     -4.0811372     23  1.900                                             
     1      2.4879257     23  1.900                                             
     2     -4.0817478      7  1.900                                             
  local pseudopotential read in
  partial core-charges read in
  partial kinetic energy density read in
  atomic valenz-charges read in
  non local Contribution for L=           0  read in
    real space projection operators read in
  non local Contribution for L=           0  read in
    real space projection operators read in
  non local Contribution for L=           1  read in
    real space projection operators read in
  non local Contribution for L=           1  read in
    real space projection operators read in
    PAW grid and wavefunctions read in

   number of l-projection  operators is LMAX  =           4
   number of lm-projection operators is LMMAX =           8

 POTCAR:    PAW_PBE W 08Apr2002                   
   VRHFIN =W : 6s5d                                                             
   LEXCH  = PE                                                                  
   EATOM  =   204.6103 eV,   15.0384 Ry                                         
                                                                                
   TITEL  = PAW_PBE W 08Apr2002                                                 
   LULTRA =        F    use ultrasoft PP ?                                      
   IUNSCR =        1    unscreen: 0-lin 1-nonlin 2-no                           
   RPACOR =    2.330    partial core radius                                     
   POMASS =  183.850; ZVAL   =    6.000    mass and valenz                      
   RCORE  =    2.750    outmost cutoff radius                                   
   RWIGS  =    2.750; RWIGS  =    1.455    wigner-seitz radius (au A)           
   ENMAX  =  223.057; ENMIN  =  167.293 eV                                      
   RCLOC  =    2.147    cutoff for local pot                                    
   LCOR   =        T    correct aug charges                                     
   LPAW   =        T    paw PP                                                  
   EAUG   =  373.438                                                            
   DEXC   =    0.000                                                            
   RMAX   =    2.801    core radius for proj-oper                               
   RAUG   =    1.300    factor for augmentation sphere                          
   RDEP   =    2.886    radius for radial grids                                 
   RDEPT  =    2.230    core radius for aug-charge                              
                                                                                
   Atomic configuration                                                         
   16 entries                                                                   
     n  l   j            E        occ.                                          
     1  0  0.50    -69465.5836   2.0000                                         
     2  0  0.50    -11986.2642   2.0000                                         
     2  1  1.50    -10479.8616   6.0000                                         
     3  0  0.50     -2759.0758   2.0000                                         
     3  1  1.50     -2313.1857   6.0000                                         
     3  2  2.50     -1801.1185  10.0000                                         
     4  0  0.50      -567.6791   2.0000                                         
     4  1  1.50      -421.4694   6.0000                                         
     4  2  2.50      -236.3473  10.0000                                         
     4  3  3.50       -31.2666  14.0000                                         
     5  0  0.50       -77.1085   2.0000                                         
     5  1  1.50       -41.3856   6.0000                                         
     5  2  2.50        -3.3185   5.0000                                         
     6  0  0.50        -5.1438   1.0000                                         
     6  1  0.50        -3.8096   0.0000                                         
     5  3  2.50        -1.3606   0.0000                                         
   Description                                                                  
     l       E           TYP  RCUT    TYP  RCUT                                 
     2     -3.3185288     23  2.500                                             
     2     -1.5965414     23  2.500                                             
     0     -5.1438054     23  2.500                                             
     0      4.9117504     23  2.500                                             
     1      2.7211652     23  2.750                                             
     1     27.2116520     23  2.750                                             
  local pseudopotential read in
  partial core-charges read in
  partial kinetic energy density read in
  atomic valenz-charges read in
  non local Contribution for L=           2  read in
    real space projection operators read in
  non local Contribution for L=           2  read in
    real space projection operators read in
  non local Contribution for L=           0  read in
    real space projection operators read in
  non local Contribution for L=           0  read in
    real space projection operators read in
  non local Contribution for L=           1  read in
    real space projection operators read in
  non local Contribution for L=           1  read in
    real space projection operators read in
    PAW grid and wavefunctions read in

   number of l-projection  operators is LMAX  =           6
   number of lm-projection operators is LMMAX =          18

 Optimization of the real space projectors (new method)

 maximal supplied QI-value         = 25.13
 optimisation between [QCUT,QGAM] = [ 11.31, 22.87] = [ 35.82,146.48] Ry 
 Optimized for a Real-space Cutoff    1.00 Angstroem

   l    n(q)    QCUT    max X(q) W(low)/X(q) W(high)/X(q)  e(spline) 
   0      7    11.310   115.676    0.43E-03    0.13E-02    0.19E-06
   0      7    11.310    87.132    0.43E-03    0.13E-02    0.18E-06
   1      6    11.310     4.429    0.42E-03    0.74E-03    0.11E-06
   1      6    11.310     2.733    0.34E-03    0.55E-03    0.92E-07
 Optimization of the real space projectors (new method)

 maximal supplied QI-value         = 34.20
 optimisation between [QCUT,QGAM] = [ 11.29, 22.57] = [ 35.68,142.71] Ry 
 Optimized for a Real-space Cutoff    1.16 Angstroem

   l    n(q)    QCUT    max X(q) W(low)/X(q) W(high)/X(q)  e(spline) 
   0      8    11.287    19.460    0.40E-03    0.73E-03    0.16E-06
   0      8    11.287    12.209    0.38E-03    0.70E-03    0.15E-06
   1      7    11.287     4.655    0.22E-03    0.25E-04    0.22E-06
 Optimization of the real space projectors (new method)

 maximal supplied QI-value         = 24.76
 optimisation between [QCUT,QGAM] = [ 11.39, 22.77] = [ 36.31,145.25] Ry 
 Optimized for a Real-space Cutoff    1.00 Angstroem

   l    n(q)    QCUT    max X(q) W(low)/X(q) W(high)/X(q)  e(spline) 
   0      7    11.387    20.381    0.39E-03    0.13E-02    0.15E-06
   0      7    11.387    15.268    0.42E-03    0.14E-02    0.17E-06
   1      6    11.387     5.964    0.41E-03    0.11E-02    0.17E-06
   1      6    11.387     5.382    0.39E-03    0.87E-03    0.15E-06
 Optimization of the real space projectors (new method)

 maximal supplied QI-value         = 19.84
 optimisation between [QCUT,QGAM] = [ 11.31, 22.82] = [ 35.82,145.81] Ry 
 Optimized for a Real-space Cutoff    1.16 Angstroem

   l    n(q)    QCUT    max X(q) W(low)/X(q) W(high)/X(q)  e(spline) 
   0      8    11.310   159.560    0.27E-03    0.30E-03    0.39E-07
   0      8    11.310   115.863    0.27E-03    0.30E-03    0.38E-07
   1      7    11.310    88.339    0.28E-03    0.28E-03    0.77E-07
   1      7    11.310    48.592    0.27E-03    0.27E-03    0.74E-07
 Optimization of the real space projectors (new method)

 maximal supplied QI-value         = 13.61
 optimisation between [QCUT,QGAM] = [ 11.43, 22.86] = [ 36.58,146.31] Ry 
 Optimized for a Real-space Cutoff    1.56 Angstroem

   l    n(q)    QCUT    max X(q) W(low)/X(q) W(high)/X(q)  e(spline) 
   2     10    11.429   130.855    0.22E-03    0.64E-03    0.11E-05
   2     10    11.429   114.007    0.22E-03    0.64E-03    0.11E-05
   0     11    11.429    84.709    0.39E-04    0.67E-04    0.23E-06
   0     11    11.429    49.163    0.35E-04    0.62E-04    0.21E-06
   1     10    11.429    15.765    0.84E-04    0.15E-03    0.24E-06
   1     10    11.429    10.638    0.58E-04    0.12E-03    0.19E-06

 ----------------------------------------------------------------------------- 
|                                                                             |
|  ADVICE TO THIS USER RUNNING 'VASP/VAMP'   (HEAR YOUR MASTER'S VOICE ...):  |
|                                                                             |
|      You enforced a specific xc-type in the INCAR file,                     |
|      a different type was found on the POTCAR file                          |
|          I HOPE YOU KNOW, WHAT YOU ARE  DOING                               |
|                                                                             |
 ----------------------------------------------------------------------------- 

  PAW_PBE C 08Apr2002                   :
 energy of atom  1       EATOM= -147.1560
 kinetic energy error for atom=    0.0076 (will be added to EATOM!!)
  PAW_PBE H 15Jun2001                   :
 energy of atom  2       EATOM=  -12.4884
 kinetic energy error for atom=    0.0020 (will be added to EATOM!!)
  PAW_PBE O 08Apr2002                   :
 energy of atom  3       EATOM= -432.3788
 kinetic energy error for atom=    0.0224 (will be added to EATOM!!)
  PAW_PBE Si 05Jan2001                  :
 energy of atom  4       EATOM= -103.0669
 kinetic energy error for atom=    0.0006 (will be added to EATOM!!)
  PAW_PBE W 08Apr2002                   :
 energy of atom  5       EATOM= -204.6103
 kinetic energy error for atom=    0.0017 (will be added to EATOM!!)


 POSCAR:  C  H  O Si  W                          
  positions in direct lattice
  velocities in cartesian coordinates
 exchange correlation table for  LEXCH =        9
   RHO(1)=    0.500       N(1)  =     2000
   RHO(2)=  100.500       N(2)  =     4000

 VTST: version 3.2, (02/03/18)

 CHAIN: initializing optimizer
 
 OPT: Using VASP Quick-Min optimizer
 CHAIN: Read ICHAIN            0
 CHAIN: Running the NEB
 NEB:          SPRING     -5.000000
 NEB:          LCLIMB      F
 NEB:     LTANGENTOLD      F
 NEB:           LDNEB      F
 NEB:        LDNEBORG      F
 NEB:        LNEBCELL      F
 NEB:          EFIRST      0.000000
 NEB:           ELAST      0.000000

 POSCAR:  C  H  O Si  W                          
  positions in cartesian coordinates
  No initial velocities read in

 POSCAR:  C  H  O Si  W                          
  positions in cartesian coordinates
  No initial velocities read in



--------------------------------------------------------------------------------------------------------


 ion  position               nearest neighbor table
   1  0.508  0.605  0.765-  49 1.10   3 1.53   2 1.53 277 2.19
   2  0.551  0.543  0.776-  50 1.10   4 1.52   1 1.53 210 1.56 277 2.59
   3  0.531  0.684  0.763-  53 1.10  52 1.10  51 1.10   1 1.53
   4  0.533  0.483  0.812-  56 1.10  55 1.10  54 1.10   2 1.52
   5  0.762  0.159  0.651- 131 0.97
   6  0.926  0.334  0.356-  79 0.98
   7  0.793  0.262  0.373- 114 0.97
   8  0.975  0.999  0.325- 123 0.97
   9  0.626  0.019  0.375- 125 0.98
  10  0.821  0.050  0.369- 143 0.97
  11  0.750  0.196  0.458- 181 0.98
  12  0.916  0.305  0.510- 186 0.97
  13  0.583  0.359  0.306- 191 0.97
  14  0.892  0.390  0.616-  97 0.98
  15  0.593  0.415  0.615- 142 0.97
  16  0.593  0.926  0.578- 184 0.99
  17  0.034  0.393  0.652- 190 0.97
  18  0.935  0.475  0.454- 179 0.98
  19  0.746  0.585  0.422-  93 1.00
  20  0.799  0.439  0.636- 171 0.97
  21  0.591  0.624  0.378- 105 0.99
  22  0.718  0.701  0.383- 128 0.99
  23  0.841  0.598  0.420- 134 0.98
  24  0.005  0.659  0.358- 139 0.97
  25  0.828  0.768  0.468- 180 0.99
  26  0.874  0.652  0.723-  59 0.97
  27  0.520  0.041  0.422- 141 0.99
  28  0.223  0.035  0.393- 182 1.00
  29  0.216  0.293  0.319- 197 0.99
  30  0.158  0.385  0.279- 188 0.97
  31  0.342  0.211  0.331- 189 0.98
  32  0.223  0.101  0.323- 196 0.97
  33  0.511  0.881  0.547- 199 0.97
  34  0.376  0.296  0.647-  84 0.97
  35  0.244  0.148  0.598- 135 0.98
  36  0.315  0.542  0.442-  58 0.99
  37  0.409  0.494  0.406- 147 0.98
  38  0.398  0.848  0.389- 185 0.97
  39  0.244  0.711  0.294- 193 0.97
  40  0.312  0.474  0.369- 194 0.98
  41  0.405  0.639  0.339- 195 0.97
  42  0.139  0.543  0.352- 187 0.98
  43  0.593  0.753  0.352-  88 0.97
  44  0.469  0.917  0.444- 198 0.99
  45  0.122  0.379  0.612- 107 0.97
  46  0.073  0.719  0.646- 138 0.97
  47  0.243  0.442  0.682- 183 0.97
  48  0.246  0.871  0.670- 192 0.97
  49  0.469  0.601  0.788-   1 1.10
  50  0.594  0.565  0.784-   2 1.10
  51  0.539  0.706  0.801-   3 1.10
  52  0.572  0.686  0.743-   3 1.10
  53  0.501  0.720  0.744-   3 1.10
  54  0.539  0.500  0.850-   4 1.10
  55  0.488  0.468  0.806-   4 1.10
  56  0.559  0.433  0.805-   4 1.10
  57  0.369  0.704  0.439- 231 1.66 266 1.68
  58  0.347  0.559  0.420-  36 0.99 266 1.67
  59  0.861  0.620  0.696-  26 0.97 237 1.64
  60  0.349  0.013  0.531- 242 1.68 275 1.70
  61  0.033  0.987  0.529- 257 1.63 268 1.66
  62  0.636  0.134  0.489- 235 1.60 224 1.65
  63  0.069  0.107  0.395- 223 1.64 215 1.65
  64  0.452  0.185  0.421- 240 1.65 221 1.65
  65  0.806  0.269  0.483- 239 1.67 236 1.69
  66  0.974  0.237  0.598- 217 1.63 247 1.65
  67  0.275  0.354  0.449- 263 1.65 273 1.66
  68  0.556  0.830  0.442- 244 1.51 271 1.66
  69  0.392  0.027  0.619- 261 1.65 275 1.66
  70  0.178  0.405  0.405- 263 1.66 238 1.67
  71  0.866  0.739  0.637- 241 1.64 237 1.65
  72  0.866  0.022  0.467- 233 1.60 248 1.65
  73  0.301  0.816  0.458- 231 1.65 245 1.67
  74  0.422  0.316  0.380- 240 1.67 260 1.67
  75  0.811  0.520  0.520- 267 1.63 214 1.63
  76  0.984  0.127  0.521- 257 1.68 217 1.69
  77  0.513  0.521  0.627- 276 1.66 277 1.98
  78  0.035  0.975  0.429- 268 1.64 215 1.65
  79  0.963  0.358  0.351-   6 0.98 216 1.65
  80  0.070  0.391  0.376- 216 1.64 238 1.65
  81  0.208  0.784  0.395- 245 1.66 255 1.67
  82  0.039  0.474  0.499- 270 1.64 243 1.65
  83  0.239  0.341  0.588- 251 1.63 228 1.63
  84  0.397  0.250  0.644-  34 0.97 222 1.64
  85  0.455  0.619  0.578- 276 1.68 253 1.68
  86  0.910  0.804  0.558- 241 1.64 220 1.66
  87  0.869  0.163  0.442- 248 1.64 236 1.65
  88  0.573  0.723  0.376-  43 0.97 244 1.68
  89  0.142  0.214  0.376- 269 1.65 223 1.65
  90  0.350  0.822  0.607- 213 1.62 254 1.64
  91  0.911  0.900  0.483- 233 1.62 220 1.66
  92  0.061  0.592  0.442- 270 1.66 212 1.67
  93  0.708  0.610  0.420-  19 1.00 226 1.67
  94  0.075  0.872  0.483- 268 1.50 250 1.65
  95  0.700  0.883  0.433- 225 1.53 258 1.65
  96  0.730  0.104  0.543- 224 1.64 259 1.64
  97  0.919  0.357  0.632-  14 0.98 247 1.63
  98  0.735  0.907  0.613- 232 1.66 229 1.68
  99  0.625  0.583  0.486- 234 1.58 226 1.68
 100  0.557  0.685  0.467- 244 1.52 234 1.63
 101  0.426  0.302  0.555- 265 1.68 222 1.68
 102  0.978  0.783  0.477- 250 1.65 220 1.65
 103  0.654  0.649  0.634- 272 1.65 218 1.67
 104  0.397  0.801  0.516- 213 1.66 231 1.66
 105  0.603  0.573  0.386-  21 0.99 226 1.65
 106  0.719  0.686  0.557- 256 1.63 272 1.65
 107  0.147  0.420  0.619-  45 0.97 228 1.64
 108  0.066  0.603  0.542- 270 1.63 274 1.64
 109  0.818  0.940  0.536- 233 1.65 232 1.67
 110  0.828  0.411  0.452- 239 1.65 214 1.65
 111  0.528  0.354  0.532- 265 1.62 246 1.63
 112  0.737  0.554  0.595- 272 1.65 267 1.66
 113  0.557  0.228  0.395- 252 1.59 221 1.64
 114  0.806  0.312  0.383-   7 0.97 239 1.67
 115  0.237  0.008  0.508- 242 1.58 227 1.67
 116  0.693  0.831  0.541- 256 1.64 229 1.64
 117  0.923  0.005  0.553- 257 1.65 233 1.65
 118  0.526  0.373  0.399- 252 1.45 260 1.66
 119  0.468  0.045  0.546- 261 1.69 262 1.70
 120  0.838  0.150  0.540- 236 1.66 259 1.66
 121  0.538  0.172  0.486- 235 1.61 221 1.67
 122  0.350  0.242  0.440- 273 1.63 240 1.65
 123  0.012  0.018  0.335-   8 0.97 215 1.65
 124  0.456  0.639  0.673- 253 1.65 277 1.96
 125  0.655  0.981  0.379-   9 0.98 225 1.66
 126  0.076  0.741  0.436- 212 1.65 250 1.66
 127  0.453  0.460  0.553- 276 1.67 265 1.70
 128  0.719  0.756  0.380-  22 0.99 258 1.65
 129  0.449  0.759  0.602- 213 1.63 253 1.64
 130  0.753  0.765  0.476- 256 1.63 258 1.69
 131  0.780  0.176  0.621-   5 0.97 259 1.64
 132  0.993  0.363  0.448- 243 1.66 216 1.68
 133  0.533  0.562  0.529- 276 1.64 234 1.65
 134  0.817  0.554  0.423-  23 0.98 214 1.69
 135  0.237  0.200  0.605-  35 0.98 251 1.62
 136  0.204  0.886  0.471- 227 1.50 245 1.63
 137  0.240  0.614  0.522- 230 1.65 219 1.66
 138  0.061  0.680  0.624-  46 0.97 274 1.63
 139  0.046  0.658  0.354-  24 0.97 212 1.65
 140  0.800  0.033  0.606- 232 1.66 259 1.68
 141  0.538  0.083  0.405-  27 0.99 221 1.66
 142  0.607  0.367  0.605-  15 0.97 246 1.64
 143  0.862  0.059  0.369-  10 0.97 248 1.66
 144  0.095  0.204  0.467- 249 1.62 223 1.65
 145  0.172  0.259  0.531- 249 1.61 251 1.63
 146  0.641  0.760  0.455- 244 1.65 258 1.66
 147  0.437  0.465  0.386-  37 0.98 260 1.66
 148  0.574  0.113  0.571- 262 1.62 235 1.65
 149  0.151  0.649  0.389- 255 1.68 212 1.68
 150  0.268  0.658  0.392- 266 1.65 255 1.67
 151  0.440  0.377  0.470- 265 1.65 260 1.69
 152  0.238  0.214  0.430- 269 1.65 273 1.67
 153  0.073  0.204  0.562- 249 1.64 217 1.64
 154  0.845  0.600  0.599- 267 1.66 237 1.66
 155  0.621  0.335  0.411- 264 1.65 252 1.66
 156  0.603  0.947  0.467- 271 1.29 225 1.67
 157  0.031  0.250  0.389- 216 1.66 223 1.66
 158  0.607  0.250  0.548- 235 1.62 246 1.64
 159  0.133  0.994  0.479- 268 1.65 227 1.66
 160  0.080  0.335  0.512- 243 1.64 249 1.65
 161  0.373  0.159  0.568- 275 1.63 222 1.69
 162  0.066  0.752  0.536- 250 1.63 274 1.63
 163  0.666  0.471  0.430- 226 1.65 264 1.65
 164  0.799  0.784  0.564- 256 1.61 241 1.63
 165  0.704  0.012  0.470- 224 1.65 225 1.66
 166  0.597  0.688  0.553- 234 1.62 218 1.63
 167  0.723  0.349  0.452- 239 1.63 264 1.64
 168  0.977  0.370  0.547- 243 1.64 247 1.67
 169  0.158  0.685  0.570- 230 1.63 274 1.65
 170  0.633  0.382  0.508- 246 1.63 264 1.65
 171  0.820  0.452  0.606-  20 0.97 267 1.65
 172  0.959  0.082  0.417- 248 1.64 215 1.65
 173  0.282  0.251  0.519- 273 1.62 251 1.65
 174  0.249  0.498  0.461- 219 1.66 263 1.71
 175  0.272  0.905  0.568- 242 1.64 254 1.65
 176  0.204  0.741  0.487- 230 1.63 245 1.66
 177  0.147  0.531  0.493- 219 1.63 270 1.65
 178  0.225  0.478  0.557- 219 1.61 228 1.64
 179  0.911  0.508  0.474-  18 0.98 214 1.65
 180  0.870  0.760  0.464-  25 0.99 220 1.65
 181  0.738  0.148  0.445-  11 0.98 224 1.66
 182  0.222  0.985  0.408-  28 1.00 227 1.64
 183  0.252  0.458  0.649-  47 0.97 228 1.64
 184  0.630  0.938  0.593-  16 0.99 229 1.62
 185  0.410  0.844  0.423-  38 0.97 231 1.68
 186  0.918  0.251  0.508-  12 0.97 236 1.65
 187  0.133  0.499  0.332-  42 0.98 238 1.65
 188  0.155  0.359  0.311-  30 0.97 238 1.69
 189  0.373  0.186  0.348-  31 0.98 240 1.66
 190  0.035  0.348  0.633-  17 0.97 247 1.66
 191  0.573  0.312  0.320-  13 0.97 252 1.66
 192  0.244  0.827  0.650-  48 0.97 254 1.64
 193  0.207  0.704  0.310-  39 0.97 255 1.65
 194  0.275  0.447  0.367-  40 0.98 263 1.66
 195  0.365  0.653  0.342-  41 0.97 266 1.67
 196  0.226  0.111  0.358-  32 0.97 269 1.69
 197  0.241  0.251  0.329-  29 0.99 269 1.66
 198  0.501  0.947  0.455-  44 0.99 271 1.60
 199  0.550  0.883  0.534-  33 0.97 271 1.67
 200  0.544  0.702  0.634- 218 1.65 253 1.67
 201  0.479  0.177  0.596- 262 1.65 222 1.66
 202  0.262  0.750  0.569- 254 1.65 230 1.65
 203  0.443  0.902  0.582- 261 1.66 213 1.69
 204  0.765  0.672  0.650- 272 1.65 237 1.66
 205  0.845  0.887  0.623- 241 1.66 232 1.68
 206  0.639  0.794  0.621- 218 1.67 229 1.71
 207  0.008  0.088  0.603- 257 1.69 217 1.69
 208  0.285  0.057  0.593- 275 1.69 242 1.70
 209  0.503  0.027  0.629- 261 1.69 262 1.70
 210  0.558  0.508  0.723-   2 1.56 277 1.89
 211  0.435  0.491  0.717- 277 1.72
 212  0.083  0.662  0.406- 139 1.65 126 1.65  92 1.67 149 1.68 270 3.13
 213  0.409  0.820  0.575-  90 1.62 129 1.63 104 1.66 203 1.69 254 3.06
 214  0.842  0.497  0.468-  75 1.63 110 1.65 179 1.65 134 1.69
 215  0.017  0.046  0.394-  63 1.65 172 1.65  78 1.65 123 1.65 268 3.11 223 3.13
 216  0.015  0.339  0.391-  80 1.64  79 1.65 157 1.66 132 1.68 243 3.11 223 3.11
 217  0.009  0.170  0.572-  66 1.63 153 1.64  76 1.69 207 1.69 257 2.39 249 3.05 247 3.08
 218  0.609  0.712  0.611- 166 1.63 200 1.65 103 1.67 206 1.67 272 2.88
 219  0.214  0.531  0.510- 178 1.61 177 1.63 137 1.66 174 1.66 230 3.10 263 3.14
 220  0.915  0.811  0.496- 102 1.65 180 1.65  86 1.66  91 1.66 233 2.99 241 3.03
 221  0.521  0.166  0.426- 113 1.64  64 1.65 141 1.66 121 1.67 252 3.08 235 3.12
 222  0.419  0.224  0.589-  84 1.64 201 1.66 101 1.68 161 1.69 275 3.14 262 3.14
 223  0.083  0.194  0.407-  63 1.64 144 1.65  89 1.65 157 1.66 216 3.11 215 3.13 269 3.14
 224  0.702  0.100  0.487-  96 1.64 165 1.65  62 1.65 181 1.66 235 3.09 225 3.10 259 3.15
 225  0.665  0.953  0.437-  95 1.53 165 1.66 125 1.66 156 1.67 271 2.83 258 3.06 224 3.10
 226  0.650  0.559  0.430- 105 1.65 163 1.65  93 1.67  99 1.68 234 3.07
 227  0.198  0.968  0.464- 136 1.50 182 1.64 159 1.66 115 1.67 245 3.01 242 3.06 268 3.07
 228  0.214  0.422  0.604-  83 1.63 178 1.64 107 1.64 183 1.64
 229  0.673  0.868  0.595- 184 1.62 116 1.64  98 1.68 206 1.71 256 2.90
 230  0.216  0.697  0.539- 169 1.63 176 1.63 202 1.65 137 1.65 245 3.09 219 3.10 274 3.13
 231  0.369  0.790  0.459-  73 1.65 104 1.66  57 1.66 185 1.68
 232  0.797  0.943  0.595- 140 1.66  98 1.66 109 1.67 205 1.68 241 2.86 233 2.99 259 3.15
 233  0.879  0.967  0.512-  72 1.60  91 1.62 109 1.65 117 1.65 220 2.99 232 2.99 257 3.05 248 3.14

 234  0.576  0.629  0.512-  99 1.58 166 1.62 100 1.63 133 1.65 244 3.00 226 3.07 276 3.12
 235  0.590  0.170  0.525-  62 1.60 121 1.61 158 1.62 148 1.65 262 2.85 224 3.09 246 3.12 221 3.12

 236  0.858  0.207  0.495- 186 1.65  87 1.65 120 1.66  65 1.69 248 3.07 239 3.15
 237  0.835  0.659  0.646-  59 1.64  71 1.65 154 1.66 204 1.66 272 2.93 267 3.00 241 3.00
 238  0.134  0.416  0.357- 187 1.65  80 1.65  70 1.67 188 1.69 263 3.11
 239  0.791  0.335  0.442- 167 1.63 110 1.65 114 1.67  65 1.67 236 3.15
 240  0.399  0.233  0.396-  64 1.65 122 1.65 189 1.66  74 1.67 260 3.07
 241  0.856  0.805  0.596- 164 1.63  71 1.64  86 1.64 205 1.66 232 2.86 237 3.00 220 3.03
 242  0.283  0.990  0.550- 115 1.58 175 1.64  60 1.68 208 1.70 275 2.38 227 3.06
 243  0.023  0.386  0.502- 160 1.64 168 1.64  82 1.65 132 1.66 247 3.10 216 3.11 249 3.14
 244  0.575  0.751  0.436-  68 1.51 100 1.52 146 1.65  88 1.68 234 3.00 271 3.06 258 3.10
 245  0.230  0.808  0.452- 136 1.63 176 1.66  81 1.66  73 1.67 255 2.97 227 3.01 230 3.09
 246  0.594  0.339  0.548- 170 1.63 111 1.63 142 1.64 158 1.64 235 3.12
 247  0.975  0.328  0.602-  97 1.63  66 1.65 190 1.66 168 1.67 217 3.08 243 3.10
 248  0.889  0.081  0.424-  87 1.64 172 1.64  72 1.65 143 1.66 236 3.07 233 3.14
 249  0.105  0.250  0.518- 145 1.61 144 1.62 153 1.64 160 1.65 217 3.05 243 3.14
 250  0.048  0.788  0.483- 162 1.63 102 1.65  94 1.65 126 1.66 268 3.05
 251  0.232  0.261  0.561- 135 1.62  83 1.63 145 1.63 173 1.65 273 3.02
 252  0.561  0.313  0.381- 118 1.45 113 1.59 155 1.66 191 1.66 260 2.87 221 3.08
 253  0.476  0.680  0.621- 129 1.64 124 1.65 200 1.67  85 1.68 276 2.94 277 3.17
 254  0.281  0.826  0.598- 192 1.64  90 1.64 202 1.65 175 1.65 213 3.06
 255  0.209  0.699  0.372- 193 1.65 150 1.67  81 1.67 149 1.68 245 2.97
 256  0.740  0.766  0.536- 164 1.61 106 1.63 130 1.63 116 1.64 229 2.90 258 2.91 272 3.07
 257  0.986  0.045  0.550-  61 1.63 117 1.65  76 1.68 207 1.69 217 2.39 233 3.05
 258  0.703  0.792  0.434-  95 1.65 128 1.65 146 1.66 130 1.69 256 2.91 225 3.06 244 3.10
 259  0.788  0.114  0.577- 131 1.64  96 1.64 120 1.66 140 1.68 224 3.15 232 3.15
 260  0.456  0.384  0.409- 147 1.66 118 1.66  74 1.67 151 1.69 252 2.87 240 3.07
 261  0.450  0.991  0.595-  69 1.65 203 1.66 209 1.69 119 1.69 262 2.36 275 2.74
 262  0.508  0.096  0.586- 148 1.62 201 1.65 119 1.70 209 1.70 261 2.36 235 2.85 222 3.14
 263  0.244  0.426  0.421-  67 1.65  70 1.66 194 1.66 174 1.71 238 3.11 219 3.14
 264  0.659  0.385  0.450- 167 1.64 155 1.65 163 1.65 170 1.65
 265  0.460  0.373  0.529- 111 1.62 151 1.65 101 1.68 127 1.70
 266  0.337  0.645  0.399- 150 1.65 195 1.67  58 1.67  57 1.68
 267  0.803  0.532  0.580-  75 1.63 171 1.65 154 1.66 112 1.66 272 2.90 237 3.00
 268  0.069  0.954  0.481-  94 1.50  78 1.64 159 1.65  61 1.66 250 3.05 227 3.07 215 3.11
 269  0.212  0.200  0.374-  89 1.65 152 1.65 197 1.66 196 1.69 273 3.12 223 3.14
 270  0.078  0.549  0.495- 108 1.63  82 1.64 177 1.65  92 1.66 274 3.09 212 3.13
 271  0.558  0.908  0.475- 156 1.29 198 1.60  68 1.66 199 1.67 225 2.83 244 3.06
 272  0.718  0.640  0.610- 106 1.65 103 1.65 204 1.65 112 1.65 218 2.88 267 2.90 237 2.93 256 3.07

 273  0.287  0.265  0.459- 173 1.62 122 1.63  67 1.66 152 1.67 251 3.02 269 3.12
 274  0.088  0.680  0.568- 162 1.63 138 1.63 108 1.64 169 1.65 270 3.09 230 3.13
 275  0.354  0.074  0.578- 161 1.63  69 1.66 208 1.69  60 1.70 242 2.38 261 2.74 222 3.14
 276  0.486  0.537  0.571- 133 1.64  77 1.66 127 1.67  85 1.68 253 2.94 234 3.12
 277  0.490  0.546  0.696- 211 1.72 210 1.89 124 1.96  77 1.98   1 2.19   2 2.59 253 3.17

  LATTYP: Found a simple orthorhombic cell.
 ALAT       =    18.1212369514
 B/A-ratio  =     1.2919258579
 C/A-ratio  =     1.4835282260
  
  Lattice vectors:
  
 A1 = (   0.0000000000, -18.1212369514,   0.0000000000)
 A2 = ( -23.4112945954,   0.0000000000,   0.0000000000)
 A3 = (   0.0000000000,   0.0000000000, -26.8833665073)


Analysis of symmetry for initial positions (statically):
=====================================================================
 Subroutine PRICEL returns:
 Original cell was already a primitive cell.
 

 Routine SETGRP: Setting up the symmetry group for a 
 simple orthorhombic supercell.


 Subroutine GETGRP returns: Found  1 space group operations
 (whereof  1 operations were pure point group operations)
 out of a pool of  8 trial point group operations.


The static configuration has the point symmetry C_1 .


Analysis of symmetry for dynamics (positions and initial velocities):
=====================================================================
 Subroutine PRICEL returns:
 Original cell was already a primitive cell.
 

 Routine SETGRP: Setting up the symmetry group for a 
 simple orthorhombic supercell.


 Subroutine GETGRP returns: Found  1 space group operations
 (whereof  1 operations were pure point group operations)
 out of a pool of  8 trial point group operations.


The dynamic configuration has the point symmetry C_1 .


Analysis of constrained symmetry for selective dynamics:
=====================================================================
 Subroutine PRICEL returns:
 Original cell was already a primitive cell.
 

 Routine SETGRP: Setting up the symmetry group for a 
 simple orthorhombic supercell.


 Subroutine GETGRP returns: Found  1 space group operations
 (whereof  1 operations were pure point group operations)
 out of a pool of  8 trial point group operations.


The constrained configuration has the point symmetry C_1 .


 Subroutine INISYM returns: Found  1 space group operations
 (whereof  1 operations are pure point group operations),
 and found     1 'primitive' translations



 KPOINTS: KPOINTS created by Atomic Simulation Env

Automatic generation of k-mesh.
Space group operators:
 irot       det(A)        alpha          n_x          n_y          n_z        tau_x        tau_y        tau_z
    1     1.000000     0.000000     1.000000     0.000000     0.000000     0.000000     0.000000     0.000000
 
 Subroutine IBZKPT returns following result:
 ===========================================
 
 Found      5 irreducible k-points:
 
 Following reciprocal coordinates:
            Coordinates               Weight
  0.000000  0.000000  0.000000      1.000000
  0.333333  0.000000  0.000000      2.000000
  0.000000  0.333333  0.000000      2.000000
  0.333333  0.333333  0.000000      2.000000
 -0.333333  0.333333  0.000000      2.000000
 
 Following cartesian coordinates:
            Coordinates               Weight
  0.000000  0.000000  0.000000      1.000000
  0.014238  0.000000  0.000000      2.000000
  0.000000  0.018395  0.000000      2.000000
  0.014238  0.018395  0.000000      2.000000
 -0.014238  0.018395  0.000000      2.000000
 


--------------------------------------------------------------------------------------------------------




 Dimension of arrays:
   k-points           NKPTS =      5   k-points in BZ     NKDIM =      5   number of bands    NBANDS=    772
   number of dos      NEDOS =    301   number of ions     NIONS =    277
   non local maximal  LDIM  =      6   non local SUM 2l+1 LMDIM =     18
   total plane-waves  NPLWV = ******
   max r-space proj   IRMAX =   2748   max aug-charges    IRDMAX=   9808
   dimension x,y,z NGX =   128 NGY =  100 NGZ =  150
   dimension x,y,z NGXF=   256 NGYF=  200 NGZF=  300
   support grid    NGXF=   256 NGYF=  200 NGZF=  300
   ions per type =               4  52 155  65   1
   NGX,Y,Z   is equivalent  to a cutoff of   9.09,  9.17,  9.28 a.u.
   NGXF,Y,Z  is equivalent  to a cutoff of  18.18, 18.35, 18.55 a.u.

 SYSTEM =  unknown system                          
 POSCAR =   C  H  O Si  W                          

 Startparameter for this run:
   NWRITE =      2    write-flag & timer
   PREC   = normal    normal or accurate (medium, high low for compatibility)
   ISTART =      0    job   : 0-new  1-cont  2-samecut
   ICHARG =      2    charge: 1-file 2-atom 10-const
   ISPIN  =      1    spin polarized calculation?
   LNONCOLLINEAR =      F non collinear calculations
   LSORBIT =      F    spin-orbit coupling
   INIWAV =      1    electr: 0-lowe 1-rand  2-diag
   LASPH  =      T    aspherical Exc in radial PAW
   METAGGA=      F    non-selfconsistent MetaGGA calc.

 Electronic Relaxation 1
   ENCUT  =  500.0 eV  36.75 Ry    6.06 a.u.  42.68 33.04 49.01*2*pi/ulx,y,z
   ENINI  =  500.0     initial cutoff
   ENAUG  =  644.9 eV  augmentation charge cutoff
   NELM   =     60;   NELMIN=  2; NELMDL=  0     # of ELM steps 
   EDIFF  = 0.1E-03   stopping-criterion for ELM
   LREAL  =      T    real-space projection
   NLSPLINE    = F    spline interpolate recip. space projectors
   LCOMPAT=      F    compatible to vasp.4.4
   GGA_COMPAT  = T    GGA compatible to vasp.4.4-vasp.4.6
   LMAXPAW     = -100 max onsite density
   LMAXMIX     =    2 max onsite mixed and CHGCAR
   VOSKOWN=      0    Vosko Wilk Nusair interpolation
   ROPT   =   -0.00050  -0.00050  -0.00050  -0.00050
   ROPT   =   -0.00050
 Ionic relaxation
   EDIFFG = -.5E-01   stopping-criterion for IOM
   NSW    =    200    number of steps for IOM
   NBLOCK =      1;   KBLOCK =    200    inner block; outer block 
   IBRION =      3    ionic relax: 0-MD 1-quasi-New 2-CG
   NFREE  =      0    steps in history (QN), initial steepest desc. (CG)
   ISIF   =      0    stress and relaxation
   IWAVPR =     11    prediction:  0-non 1-charg 2-wave 3-comb
   ISYM   =      2    0-nonsym 1-usesym 2-fastsym
   LCORR  =      T    Harris-Foulkes like correction to forces

   POTIM  = 0.0150    time-step for ionic-motion
   TEIN   =    0.0    initial temperature
   TEBEG  =    0.0;   TEEND  =   0.0 temperature during run
   SMASS  =  -3.00    Nose mass-parameter (am)
   estimated Nose-frequenzy (Omega)   =  0.10E-29 period in steps =****** mass=  -0.125E-25a.u.
   SCALEE = 1.0000    scale energy and forces
   NPACO  =    256;   APACO  = 16.0  distance and # of slots for P.C.
   PSTRESS=    0.0 pullay stress

  Mass of Ions in am
   POMASS =  12.01  1.00 16.00 28.09183.85
  Ionic Valenz
   ZVAL   =   4.00  1.00  6.00  4.00  6.00
  Atomic Wigner-Seitz radii
   RWIGS  =  -1.00 -1.00 -1.00 -1.00 -1.00
  virtual crystal weights 
   VCA    =   1.00  1.00  1.00  1.00  1.00
   NELECT =    1264.0000    total number of electrons
   NUPDOWN=      -1.0000    fix difference up-down

 DOS related values:
   EMIN   =  10.00;   EMAX   =-10.00  energy-range for DOS
   EFERMI =   0.00
   ISMEAR =     0;   SIGMA  =   0.20  broadening in eV -4-tet -1-fermi 0-gaus

 Electronic relaxation 2 (details)
   IALGO  =     68    algorithm
   LDIAG  =      T    sub-space diagonalisation (order eigenvalues)
   LSUBROT=      F    optimize rotation matrix (better conditioning)
   TURBO    =      0    0=normal 1=particle mesh
   IRESTART =      0    0=no restart 2=restart with 2 vectors
   NREBOOT  =      0    no. of reboots
   NMIN     =      0    reboot dimension
   EREF     =   0.00    reference energy to select bands
   IMIX   =      4    mixing-type and parameters
     AMIX     =   0.40;   BMIX     =  1.00
     AMIX_MAG =   1.60;   BMIX_MAG =  1.00
     AMIN     =   0.10
     WC   =   100.;   INIMIX=   1;  MIXPRE=   1;  MAXMIX= -45

 Intra band minimization:
   WEIMIN = 0.0010     energy-eigenvalue tresh-hold
   EBREAK =  0.32E-07  absolut break condition
   DEPER  =   0.30     relativ break condition  

   TIME   =   0.40     timestep for ELM

  volume/ion in A,a.u.               =      41.17       277.85
  Fermi-wavevector in a.u.,A,eV,Ry     =   0.786366  1.486017  8.413461  0.618372
  Thomas-Fermi vector in A             =   1.890890

 Write flags
   LWAVE        =      F    write WAVECAR
   LDOWNSAMPLE  =      F    k-point downsampling of WAVECAR
   LCHARG       =      F    write CHGCAR
   LVTOT        =      F    write LOCPOT, total local potential
   LVHAR        =      F    write LOCPOT, Hartree potential only
   LELF         =      F    write electronic localiz. function (ELF)
   LORBIT       =      0    0 simple, 1 ext, 2 COOP (PROOUT), +10 PAW based schemes


 Dipole corrections
   LMONO  =      F    monopole corrections only (constant potential shift)
   LDIPOL =      T    correct potential (dipole corrections)
   IDIPOL =      3    1-x, 2-y, 3-z, 4-all directions 
   EPSILON=  1.0000000 bulk dielectric constant

 Exchange correlation treatment:
   GGA     =    RP    GGA type
   LEXCH   =     9    internal setting for exchange type
   VOSKOWN=      0    Vosko Wilk Nusair interpolation
   LHFCALC =     F    Hartree Fock is set to
   LHFONE  =     F    Hartree Fock one center treatment
   AEXX    =    0.0000 exact exchange contribution

 Linear response parameters
   LEPSILON=     F    determine dielectric tensor
   LRPA    =     F    only Hartree local field effects (RPA)
   LNABLA  =     F    use nabla operator in PAW spheres
   LVEL    =     F    velocity operator in full k-point grid
   LINTERFAST=   F  fast interpolation
   KINTER  =     0    interpolate to denser k-point grid
   CSHIFT  =0.1000    complex shift for real part using Kramers Kronig
   OMEGAMAX=  -1.0    maximum frequency
   DEG_THRESHOLD= 0.2000000E-02 threshold for treating states as degnerate
   RTIME   =   -0.100 relaxation time in fs
  (WPLASMAI=    0.000 imaginary part of plasma frequency in eV, 0.658/RTIME)
   DFIELD  = 0.0000000 0.0000000 0.0000000 field for delta impulse in time

 Orbital magnetization related:
   ORBITALMAG=     F  switch on orbital magnetization
   LCHIMAG   =     F  perturbation theory with respect to B field
   DQ        =  0.001000  dq finite difference perturbation B field
   LLRAUG    =     F  two centre corrections for induced B field



--------------------------------------------------------------------------------------------------------


 quickmin algorithm: (dynamic with friction)
   using selective dynamics as specified on POSCAR
 charge density and potential will be updated during run
 non-spin polarized calculation
 RMM-DIIS sequential band-by-band and
  variant of blocked Davidson during initial phase
 perform sub-space diagonalisation
    before iterative eigenvector-optimisation
 modified Broyden-mixing scheme, WC =      100.0
 initial mixing is a Kerker type mixing with AMIX =  0.4000 and BMIX =      1.0000
 Hartree-type preconditioning will be used
 using additional bands          140
 real space projection scheme for non local part
 use partial core corrections
 calculate Harris-corrections to forces   (improved forces if not selfconsistent)
 use gradient corrections 
 use of overlap-Matrix (Vanderbilt PP)
 Gauss-broadening in eV      SIGMA  =   0.20


--------------------------------------------------------------------------------------------------------


  energy-cutoff  :      500.00
  volume of cell :    11405.04
      direct lattice vectors                 reciprocal lattice vectors
    23.411294595  0.000000000  0.000000000     0.042714426  0.000000000  0.000000000
     0.000000000 18.121236951  0.000000000     0.000000000  0.055183871  0.000000000
     0.000000000  0.000000000 26.883366507     0.000000000  0.000000000  0.037197722

  length of vectors
    23.411294595 18.121236951 26.883366507     0.042714426  0.055183871  0.037197722



 k-points in units of 2pi/SCALE and weight: KPOINTS created by Atomic Simulation Env
   0.00000000  0.00000000  0.00000000       0.111
   0.01423814  0.00000000  0.00000000       0.222
   0.00000000  0.01839462  0.00000000       0.222
   0.01423814  0.01839462  0.00000000       0.222
  -0.01423814  0.01839462  0.00000000       0.222

 k-points in reciprocal lattice and weights: KPOINTS created by Atomic Simulation Env
   0.00000000  0.00000000  0.00000000       0.111
   0.33333333  0.00000000  0.00000000       0.222
   0.00000000  0.33333333  0.00000000       0.222
   0.33333333  0.33333333  0.00000000       0.222
  -0.33333333  0.33333333  0.00000000       0.222

 position of ions in fractional coordinates (direct lattice) 
   0.50775580  0.60490776  0.76532186
   0.55104683  0.54344436  0.77590607
   0.53139901  0.68359558  0.76311267
   0.53313249  0.48250164  0.81163223
   0.76160837  0.15916134  0.65099767
   0.92642768  0.33385283  0.35633493
   0.79333970  0.26246277  0.37345652
   0.97453911  0.99879247  0.32530279
   0.62573266  0.01865672  0.37523120
   0.82053840  0.05019053  0.36899263
   0.74999307  0.19636263  0.45803819
   0.91551782  0.30461773  0.50990219
   0.58349286  0.35944742  0.30592717
   0.89176825  0.39032782  0.61608404
   0.59277850  0.41536579  0.61529756
   0.59331697  0.92599210  0.57801204
   0.03368760  0.39315937  0.65235482
   0.93527051  0.47469810  0.45410146
   0.74613838  0.58549586  0.42248819
   0.79937445  0.43897512  0.63553299
   0.59110202  0.62386670  0.37803474
   0.71843379  0.70111666  0.38346059
   0.84115291  0.59761047  0.41959617
   0.00476455  0.65898202  0.35777830
   0.82835870  0.76754054  0.46794226
   0.87401486  0.65248621  0.72263528
   0.51999031  0.04074863  0.42170307
   0.22309457  0.03533871  0.39320502
   0.21637369  0.29303533  0.31923033
   0.15750105  0.38499010  0.27898292
   0.34154688  0.21076958  0.33077276
   0.22271586  0.10094280  0.32273843
   0.51116417  0.88098540  0.54673700
   0.37612642  0.29585459  0.64714936
   0.24444933  0.14835385  0.59820160
   0.31538097  0.54232034  0.44243467
   0.40895618  0.49391873  0.40569060
   0.39849950  0.84829748  0.38878680
   0.24420236  0.71061395  0.29432688
   0.31174138  0.47365958  0.36925764
   0.40547429  0.63946352  0.33881989
   0.13935762  0.54315752  0.35192946
   0.59326935  0.75317100  0.35239799
   0.46900683  0.91661134  0.44382838
   0.12181241  0.37879078  0.61203455
   0.07316064  0.71930386  0.64622794
   0.24283785  0.44209158  0.68241593
   0.24620394  0.87118283  0.66990242
   0.46903721  0.60147497  0.78841146
   0.59399288  0.56492639  0.78392245
   0.53905032  0.70614182  0.80068342
   0.57201604  0.68561301  0.74255439
   0.50105136  0.72031174  0.74409665
   0.53944087  0.50029038  0.85041324
   0.48791979  0.46799743  0.80636590
   0.55936061  0.43323565  0.80487618
   0.36894173  0.70353897  0.43900002
   0.34681565  0.55921774  0.42038813
   0.86107805  0.62037453  0.69611372
   0.34896283  0.01261650  0.53050656
   0.03312527  0.98717454  0.52851934
   0.63635548  0.13405242  0.48937667
   0.06864615  0.10744929  0.39511073
   0.45189954  0.18474620  0.42059728
   0.80588415  0.26883405  0.48316661
   0.97371020  0.23696792  0.59848562
   0.27476529  0.35435674  0.44851223
   0.55635417  0.83027516  0.44175101
   0.39182231  0.02682582  0.61947358
   0.17751724  0.40515232  0.40527312
   0.86633349  0.73936333  0.63732868
   0.86569601  0.02236080  0.46703846
   0.30104714  0.81612071  0.45792526
   0.42161095  0.31643609  0.37959630
   0.81095727  0.52044786  0.51999766
   0.98351607  0.12711919  0.52109636
   0.51277309  0.52133406  0.62711670
   0.03453641  0.97513163  0.42940526
   0.96303654  0.35837918  0.35125762
   0.06962669  0.39128964  0.37637178
   0.20829566  0.78382816  0.39536010
   0.03890126  0.47428579  0.49910875
   0.23899495  0.34139153  0.58777950
   0.39702233  0.24989473  0.64422230
   0.45480229  0.61919365  0.57818624
   0.90987505  0.80420501  0.55754821
   0.86912727  0.16322721  0.44227833
   0.57257679  0.72251572  0.37613173
   0.14242656  0.21430937  0.37597224
   0.34994260  0.82207514  0.60669206
   0.91099605  0.90023144  0.48317962
   0.06133801  0.59205558  0.44225348
   0.70833903  0.61035042  0.41995768
   0.07548726  0.87199068  0.48299416
   0.70046477  0.88273959  0.43263529
   0.73024730  0.10403191  0.54292664
   0.91896893  0.35709363  0.63200881
   0.73498295  0.90683222  0.61292188
   0.62512195  0.58257787  0.48637871
   0.55657330  0.68488691  0.46724942
   0.42580269  0.30180749  0.55499421
   0.97829009  0.78342750  0.47679564
   0.65377677  0.64941084  0.63357489
   0.39686019  0.80113047  0.51554001
   0.60269007  0.57284932  0.38567099
   0.71936597  0.68623980  0.55714004
   0.14652737  0.42049974  0.61939674
   0.06591692  0.60336070  0.54202743
   0.81839692  0.93958009  0.53633266
   0.82821553  0.41056901  0.45190334
   0.52760168  0.35377099  0.53243219
   0.73662044  0.55437688  0.59511493
   0.55743394  0.22761498  0.39490854
   0.80596408  0.31159644  0.38329286
   0.23744622  0.00843462  0.50791956
   0.69251644  0.83113783  0.54132280
   0.92335601  0.00486015  0.55300549
   0.52573722  0.37296499  0.39855594
   0.46820554  0.04506808  0.54621580
   0.83793062  0.14974497  0.53965672
   0.53790325  0.17160136  0.48623709
   0.35019344  0.24179260  0.43963639
   0.01176032  0.01759777  0.33524376
   0.45570868  0.63869142  0.67263499
   0.65496522  0.98058138  0.37922825
   0.07629334  0.74121013  0.43588102
   0.45270729  0.45974128  0.55283394
   0.71921944  0.75560472  0.37958300
   0.44923745  0.75860573  0.60166899
   0.75255106  0.76450845  0.47629548
   0.77979121  0.17591184  0.62063049
   0.99327462  0.36319734  0.44840298
   0.53349313  0.56193290  0.52935651
   0.81677759  0.55424561  0.42344221
   0.23659036  0.20035738  0.60496826
   0.20353331  0.88588519  0.47053363
   0.23994352  0.61429286  0.52238949
   0.06091410  0.68042544  0.62390523
   0.04607407  0.65753056  0.35417863
   0.80021263  0.03331077  0.60556139
   0.53799091  0.08288136  0.40450275
   0.60678814  0.36728225  0.60508698
   0.86154611  0.05926472  0.36920633
   0.09491131  0.20420671  0.46708233
   0.17156478  0.25896527  0.53062632
   0.64098865  0.75962259  0.45481558
   0.43678778  0.46495235  0.38641325
   0.57411118  0.11295428  0.57089270
   0.15143775  0.64859189  0.38895836
   0.26773979  0.65752140  0.39230630
   0.44025846  0.37738205  0.47032443
   0.23800967  0.21369500  0.42990119
   0.07290451  0.20421335  0.56215313
   0.84473540  0.60000827  0.59930780
   0.62117943  0.33512375  0.41090545
   0.60266699  0.94671054  0.46722346
   0.03138539  0.25047370  0.38899188
   0.60721578  0.25048415  0.54755247
   0.13279973  0.99353852  0.47948708
   0.07985711  0.33515240  0.51211969
   0.37254826  0.15935085  0.56848732
   0.06621119  0.75155270  0.53558046
   0.66648838  0.47056875  0.43001156
   0.79919425  0.78429689  0.56435413
   0.70383856  0.01239230  0.47018456
   0.59727173  0.68834561  0.55325862
   0.72284030  0.34886852  0.45166811
   0.97709595  0.36964281  0.54702407
   0.15786395  0.68479963  0.57039630
   0.63333384  0.38196695  0.50780070
   0.82023169  0.45243605  0.60568079
   0.95857820  0.08242692  0.41695300
   0.28213884  0.25074727  0.51855073
   0.24925755  0.49821676  0.46105570
   0.27192280  0.90481219  0.56804114
   0.20366815  0.74075704  0.48688872
   0.14712345  0.53125375  0.49254493
   0.22489237  0.47842294  0.55676349
   0.91141698  0.50792847  0.47371881
   0.86978818  0.75974398  0.46415352
   0.73812021  0.14801849  0.44522965
   0.22218344  0.98496506  0.40794682
   0.25227504  0.45794294  0.64900045
   0.63035967  0.93811152  0.59343052
   0.41022327  0.84424626  0.42343739
   0.91777135  0.25122216  0.50824515
   0.13254706  0.49871998  0.33227266
   0.15514768  0.35870713  0.31056042
   0.37300515  0.18609091  0.34795342
   0.03470128  0.34790978  0.63304990
   0.57268926  0.31205206  0.32009968
   0.24445513  0.82677152  0.64986179
   0.20737430  0.70358892  0.31036906
   0.27537441  0.44737517  0.36737583
   0.36535081  0.65277050  0.34222079
   0.22638085  0.11136469  0.35811888
   0.24120333  0.25126210  0.32934297
   0.50127293  0.94748549  0.45484168
   0.55010484  0.88281886  0.53425849
   0.54422566  0.70150288  0.63429957
   0.47850524  0.17721838  0.59593529
   0.26185952  0.74974178  0.56898726
   0.44305375  0.90159698  0.58175843
   0.76536730  0.67195935  0.64952997
   0.84486351  0.88696937  0.62262493
   0.63927547  0.79438918  0.62068903
   0.00781098  0.08829857  0.60303205
   0.28467207  0.05737219  0.59340358
   0.50329296  0.02699911  0.62865668
   0.55819746  0.50842541  0.72343561
   0.43530519  0.49095171  0.71701951
   0.08322528  0.66160417  0.40641308
   0.40889567  0.82024230  0.57505504
   0.84176382  0.49663699  0.46783897
   0.01708949  0.04566591  0.39361135
   0.01470021  0.33937414  0.39108141
   0.00920923  0.16978735  0.57233401
   0.60884888  0.71231536  0.61095841
   0.21400548  0.53133893  0.50969235
   0.91506213  0.81074481  0.49625454
   0.52057854  0.16563950  0.42598659
   0.41852387  0.22441744  0.58889311
   0.08345253  0.19435595  0.40698087
   0.70189793  0.10003013  0.48732303
   0.66505935  0.95322133  0.43747644
   0.65009874  0.55921093  0.43015089
   0.19846065  0.96766610  0.46399069
   0.21424489  0.42238292  0.60353962
   0.67328038  0.86821994  0.59457469
   0.21641977  0.69688428  0.53864320
   0.36878912  0.79031160  0.45920930
   0.79707237  0.94315435  0.59547209
   0.87947284  0.96725320  0.51198689
   0.57609421  0.62935995  0.51170073
   0.58978788  0.17040980  0.52528352
   0.85812234  0.20729710  0.49517595
   0.83537987  0.65883632  0.64578906
   0.13373852  0.41550277  0.35687228
   0.79065529  0.33512312  0.44187265
   0.39917610  0.23267871  0.39600320
   0.85597466  0.80516005  0.59649782
   0.28298274  0.98971493  0.54956298
   0.02307473  0.38563139  0.50224551
   0.57455938  0.75067395  0.43556436
   0.23024095  0.80778437  0.45196954
   0.59385243  0.33915405  0.54835773
   0.97528818  0.32775679  0.60249750
   0.88890636  0.08059287  0.42420019
   0.10473891  0.25037368  0.51785005
   0.04814566  0.78822096  0.48263019
   0.23201537  0.26125171  0.56096305
   0.56140781  0.31296914  0.38122611
   0.47637100  0.68046541  0.62106575
   0.28079565  0.82612205  0.59783667
   0.20850083  0.69858372  0.37179454
   0.74027363  0.76574608  0.53589523
   0.98626938  0.04527729  0.55048876
   0.70310456  0.79200202  0.43426040
   0.78809705  0.11422758  0.57665212
   0.45631390  0.38363547  0.40928789
   0.44975601  0.99056513  0.59454309
   0.50843290  0.09590785  0.58602659
   0.24424715  0.42559019  0.42094710
   0.65852534  0.38518598  0.45034791
   0.46038964  0.37330055  0.52893422
   0.33729937  0.64512641  0.39908301
   0.80313630  0.53202608  0.57963594
   0.06920979  0.95404303  0.48050551
   0.21190758  0.19963819  0.37359659
   0.07823286  0.54916887  0.49468762
   0.55757019  0.90752397  0.47473025
   0.71807279  0.63980063  0.60971543
   0.28664212  0.26528561  0.45911077
   0.08770993  0.68036185  0.56778064
   0.35371591  0.07372438  0.57817569
   0.48628284  0.53681393  0.57086789
   0.48983368  0.54629828  0.69587733

 position of ions in cartesian coordinates  (Angst):
  11.88722054 10.96167691 20.57442818
  12.90071975  9.84788401 20.85896731
  12.44073881 12.38759752 20.51503755
  12.48132175  8.74352647 21.81940665
  17.83023799  2.88420028 17.50100897
  21.68887124  6.04982630  9.57948250
  18.57310935  4.75615001 10.03976840
  22.81522226 18.09935504  8.74523415
  14.64921175  0.33808286 10.08747787
  19.20986618  0.90951457  9.91976410
  17.55830880  3.55833368 12.31360861
  21.43345748  5.52005008 13.70788753
  13.66032332  6.51363181  8.22435231
  20.87744932  7.07322286 16.56241296
  13.87771198  7.52694186 16.54126973
  13.89031847 16.78012226 15.53890952
   0.78867030  7.12453407 17.53749359
  21.89589338  8.60211669 12.20777585
  17.46806539 10.60990927 11.35790489
  18.71439078  7.95477222 17.08526629
  13.83846346 11.30523625 10.16284657
  16.81946503 12.70510106 10.30871170
  19.69247867 10.82944087 11.28015755
   0.11154425 11.94156933  9.61828518
  19.39294954 13.90878407 12.57986315
  20.46181942 11.82385720 19.42686912
  12.17364643  0.73841562 11.33679820
   5.22293275  0.64038106 10.57067472
   5.06558822  5.31016263  8.58198589
   3.68730349  6.97649684  7.50000000
   7.99605454  3.81940543  8.89228530
   5.21406665  1.82920834  8.67629559
  11.96701506 15.96454519 14.69813109
   8.80560644  5.36125105 17.39755345
   5.72287533  2.68835518 16.08167294
   7.38347683  9.82751530 11.89413327
   9.57419369  8.95041833 10.90632902
   9.32938926 15.37219961 10.45189795
   5.71709332 12.87720376  7.91249741
   7.29826932  8.58329756  9.92688859
   9.49267817 11.58787004  9.10861924
   3.26254231  9.84268607  9.46104865
  13.88920341 13.64839014  9.47364424
  10.98005707 16.61013128 11.93160111
   2.85178629  6.86415753 16.45354917
   1.71278539 13.03467565 17.37278255
   5.68514839  8.01124631 18.34563744
   5.76395308 15.78691056 18.00923229
  10.98076821 10.89947050 21.19515432
  13.90614225 10.23716498 21.07447445
  12.61986581 12.79616321 21.52506575
  13.39163610 12.42415582 19.96236193
  11.73026110 13.05293970 20.00382306
  12.62900919  9.06588046 22.86197090
  11.42283397  8.48069237 21.67783007
  13.09535592  7.85076594 21.63778132
   8.63740362 12.74899635 11.80179838
   8.11940335 10.13371715 11.30144811
  20.15895197 11.24195383 18.71388019
   8.16967150  0.22862657 14.26180215
   0.77550536 17.88882370 14.20837914
  14.89790566  2.42919560 13.15609244
   1.60709516  1.94711408 10.62190669
  10.57955331  3.34782959 11.30707087
  18.86679123  4.87160553 12.98914499
  22.79581641  4.29415176 16.08930836
   6.43261122  6.42138248 12.05751853
  13.02497128 15.04561294 11.87575437
   9.17306752  0.48611699 16.65353523
   4.15590840  7.34186119 10.89510594
  20.28198860 13.39817806 17.13354051
  20.26706432  0.40520541 12.55556607
   7.04790320 14.78911669 12.31057251
   9.87045805  5.73421333 10.20482654
  18.98555958  9.43115898 13.97928763
  23.02538444  2.30355701 14.00882452
  12.00468193  9.44721802 16.85900820
   0.80854198 17.67059137 11.54385891
  22.54593219  6.49427402  9.44298747
   1.63005096  7.09065222 10.11814055
   4.87647100 14.20393591 10.62861051
   0.91072893  8.59464512 13.41772355
   5.59518107  6.18643677 15.80149161
   9.29480671  4.52840166 17.31886413
  10.64751041 11.22055485 15.54359253
  21.30135292 14.57318960 14.98877301
  20.34739459  2.95787901 11.88993046
  13.40476402 13.09287863 10.11168720
   3.33439013  3.88355087 10.10739962
   8.19260928 14.89701839 16.30992495
  21.32759690 16.31330727 12.98949491
   1.43600223 10.72877939 11.88926245
  16.58313365 11.06030463 11.28987623
   1.76725442 15.80154965 12.98450890
  16.39878711 15.99633320 11.63069310
  17.09603474  1.88518683 14.59569592
  21.51425227  6.47097829 16.99052443
  17.20690229 16.43292153 16.47740353
  14.63491423 10.55703168 13.07549710
  13.03010146 12.41099800 12.56123752
   9.96859232  5.46912504 14.92011276
  22.90303759 14.19667544 12.81787194
  15.30576058 11.76812768 17.03262594
   9.29101081 14.51747506 13.85945096
  14.10975474 10.38073831 10.36813464
  16.84128858 12.43551409 14.97779984
   3.43039540  7.61997539 16.65146964
   1.54320045 10.93364213 14.57152219
  19.15973140 17.02635353 14.41842742
  19.38959778  7.44001838 12.14868300
  12.35183836  6.41076797 14.31356979
  17.24523821 10.04599487 15.99869281
  13.05025009  4.12466491 10.61647095
  18.86866258  5.64651294 10.30420244
   5.55892333  0.15284577 13.65458756
  16.21270628 15.06124550 14.55257911
  21.61695952  0.08807184 14.86664935
  12.30818899  6.75858696 10.71452528
  10.96129789  0.81668939 14.68411950
  19.61704062  2.71356409 14.50778948
  12.59301152  3.10962891 13.07168996
   8.19848185  4.38158105 11.81890631
   0.27532438  0.31889337  9.01248080
  10.66873024 11.57387855 18.08269302
  15.33358375 17.76934745 10.19493214
   1.78612593 13.43164436 11.71794928
  10.59846369  8.33108074 14.86203736
  16.83785811 13.69249221 10.20446890
  10.51723034 13.74687413 16.17488796
  17.61819454 13.85383870 12.80442605
  18.25592167  3.18774017 16.68463684
  23.25384464  6.58158513 12.05458163
  12.48976482 10.18291929 14.23088508
  19.12182067 10.04361594 11.38355200
   5.53888665  3.63072350 16.26358335
   4.76497818 16.05333538 12.64952801
   5.61738852 11.13174652 14.04358809
   1.42607798 12.33015060 16.77267302
   1.07865368 11.91526713  9.52151395
  18.73401358  0.60363227 16.27952869
  12.59506368  1.50191281 10.87439573
  14.20569590  6.65560870 16.26677511
  20.16990973  1.07395004  9.92550906
   2.22199659  3.70047811 12.55674536
   4.01655369  4.69277105 14.26502177
  15.00637423 13.76530096 12.22697399
  10.22576747  8.42551173 10.38808912
  13.44068603  2.04687136 15.34751767
   3.54535369 11.75328740 10.45651017
   6.26813510 11.91510113 10.54651395
  10.30702050  6.83862960 12.64390410
   5.57211440  3.87241773 11.55719116
   1.70678887  3.70059842 15.11256860
  19.77634935 10.87289199 16.11141111
  14.54261459  6.07285683 11.04652184
  14.10921452 17.15556596 12.56053950
   0.73477264  4.53889327 10.45741115
  14.21570739  4.53908255 14.72005368
   3.10901351 18.00414686 12.89022683
   1.86955824  6.07337603 13.76750140
   8.72183695  2.88763443 15.28285289
   1.55008962 13.61906453 14.39820589
  15.60335581  8.52728779 11.56015827
  18.71017202 14.21242973 15.17173888
  16.47777184  0.22456388 12.64014391
  13.98290448 12.47367387 14.87345432
  16.92262720  6.32192920 12.14235921
  22.87508120  6.69838499 14.70584859
   3.69579956 12.40941639 15.33417291
  14.82716522  6.92171361 13.65139239
  19.20268562  8.19870084 16.28273865
  22.44155659  1.49367766 11.20910044
   6.60523555  4.54385071 13.94038920
   5.83544193  9.02830396 12.39472924
   6.36606473 16.39631607 15.27085810
   4.76813504 13.42343385 13.08920785
   3.44435051  9.62697504 13.24126574
   5.26502151  8.66961543 14.96767689
  21.33745138  9.20429214 12.73515651
  20.36286723 13.76750071 12.47800922
  17.28034963  2.68227812 11.96927179
   5.20160188 17.84878525 10.96698378
   5.90608521  8.29849258 17.44731694
  14.75753591 16.99974113 15.95341028
   9.60385771 15.29878657 11.38342242
  21.48621551  4.55245637 13.66334053
   3.10309823  9.03742301  8.93260776
   3.63220806  6.50021683  8.34890949
   8.73253334  3.37219755  9.35415932
   0.81240183  6.30455555 17.01851248
  13.40739699  5.65476936  8.60535697
   5.72301097 14.98212264 17.47047257
   4.85490080 12.74990154  8.34376522
   6.44687148  8.10699146  9.87629901
   8.55333550 11.82900896  9.20004704
   5.29986877  2.01806602  9.62744117
   5.64688233  4.55318002  8.85384768
  11.73544815 17.16960912 12.22767567
  12.87866645 15.99776980 14.36266672
  12.74102728 12.71209987 17.05210775
  11.20242709  3.21141634 16.02074671
   6.13047044 13.58624851 15.29629309
  10.37246186 16.33805258 15.63962515
  17.91823927 12.17673457 17.46155221
  19.77934851 16.07298209 16.73825426
  14.96626630 14.39531449 16.68621069
   0.18286517  1.60007931 16.21153160
   6.66454161  1.03965497 15.95268604
  11.78273975  0.48925728 16.90040789
  13.06812510  9.21329727 19.44838458
  10.19105805  8.89665230 19.27589821
   1.94841153 11.98908596 10.92575188
   9.57277690 14.86380501 15.45941533
  19.70678074  8.99967650 12.57708649
   0.40008717  0.82752277 10.58159830
   0.34415087  6.14987929 10.51358498
   0.21559998  3.07675679 15.38626509
  14.25394052 12.90803543 16.42461897
   5.01014527  9.62851867 13.70224612
  21.42278905 14.69169878 13.34099278
  12.18741762  3.00159257 11.45195358
   9.79818556  4.06672159 15.83142923
   1.95373172  3.52197018 10.94101594
  16.43233932  1.81266960 13.10088356
  15.56990047 17.27354966 11.76083937
  15.21965321 10.13359373 11.56390395
   4.64622068 17.53530673 12.47363180
   5.01575020  7.65410104 16.22517687
  15.76236540 15.73321929 15.98416926
   5.06666700 12.62840516 14.48054247
   8.63383069 14.32142384 12.34509184
  18.66049596 17.09112352 16.00829444
  20.58959777 17.52782441 13.76393129
  13.48711125 11.40478080 13.75623820
  13.80769790  3.08803639 14.12138935
  20.08975493  3.75647992 13.31199648
  19.55732427 11.93892905 17.36098404
   3.13099191  7.52942423  9.59392828
  18.51026388  6.07284540 11.87902451
   9.34522920  4.21642612 10.64589911
  20.03947498 14.59049613 16.03586961
   6.62499234 17.93485879 14.77410292
   0.54020935  6.98811771 13.50205012
  13.45117902 13.60314055 11.70943634
   5.39023881 14.63805192 12.15046292
  13.90285419  6.14589099 14.74170173
  22.83275880  5.93935840 16.19716115
  20.81044864  1.46044249 11.40392910
   2.45207341  4.53708086 13.92155274
   1.12715225 14.28353886 12.97472440
   5.43178017  4.73420411 15.08057523
  13.14328356  5.67138795 10.24864117
  11.15246186 12.33087491 16.69633824
   6.57378970 14.97035343 16.07186231
   4.88127424 12.65920103  9.99508876
  17.33076408 13.87626610 14.40666780
  23.08984310  0.82048043 14.79899115
  16.46058793 14.35205634 11.67438144
  18.45037225  2.06994503 15.50235039
  10.68289909  6.95194918 11.00303640
  10.52937045 17.95026550 15.98331986
  11.90307248  1.73796894 15.75436762
   5.71814202  7.71222076 11.31647527
  15.41693082  6.98004644 12.10686792
  10.77831757  6.76466778 14.21953255
   7.89661487 11.69048858 10.72869482
  18.80246055  9.64097068 15.58256530
   1.62029077 17.28843974 12.91760565
   4.96103075  3.61769098 10.04353415
   1.83153245  9.95161914 13.29886860
  13.05343995 16.44545689 12.76234739
  16.81101358 11.59397884 16.39120340
   6.71066321  4.80730338 12.34244318
   2.05340311 12.32899838 15.26385512
   8.28094742  1.33597692 15.54330905
  11.38451077  9.72773240 15.34685084
  11.46764053  9.89960063 18.70752527



--------------------------------------------------------------------------------------------------------


 k-point  1 :   0.0000 0.0000 0.0000  plane waves:  289505
 k-point  2 :   0.3333 0.0000 0.0000  plane waves:  289422
 k-point  3 :   0.0000 0.3333 0.0000  plane waves:  289550
 k-point  4 :   0.3333 0.3333 0.0000  plane waves:  289551
 k-point  5 :  -0.3333 0.3333 0.0000  plane waves:  289551

 maximum and minimum number of plane-waves per node :     72451    72309

 maximum number of plane-waves:    289551
 maximum index in each direction: 
   IXMAX=   43   IYMAX=   33   IZMAX=   49
   IXMIN=  -43   IYMIN=  -33   IZMIN=  -49


 real space projection operators:
  total allocation   :      13820.12 KBytes
  max/ min on nodes  :       3459.56       3448.16


 parallel 3D FFT for wavefunctions:
    minimum data exchange during FFTs selected (reduces bandwidth)
 parallel 3D FFT for charge:
    minimum data exchange during FFTs selected (reduces bandwidth)


 total amount of memory used by VASP MPI-rank0  2555036. kBytes
=======================================================================

   base      :      30000. kBytes
   nonlr-proj:      16952. kBytes
   fftplans  :      79581. kBytes
   grid      :     173670. kBytes
   one-center:       1088. kBytes
   wavefun   :    2253745. kBytes

     INWAV:  cpu time    0.0000: real time    0.0000
 Broyden mixing: mesh for mixing (old mesh)
   NGX = 85   NGY = 67   NGZ = 99
  (NGX  =256   NGY  =200   NGZ  =300)
  gives a total of 563805 points

 initial charge density was supplied:
 charge density of overlapping atoms calculated
 number of electron    1264.0000000 magnetization 
 keeping initial charge density in first step


--------------------------------------------------------------------------------------------------------


 Maximum index for non-local projection operator          662
 Maximum index for augmentation-charges         1145 (set IRDMAX)


--------------------------------------------------------------------------------------------------------


 First call to EWALD:  gamma=   0.079
 Maximum number of real-space cells 3x 3x 2
 Maximum number of reciprocal cells 3x 2x 3

    FEWALD:  cpu time    0.0954: real time    0.0957


--------------------------------------- Iteration      1(   1)  ---------------------------------------


    POTLOK:  cpu time    1.0629: real time    1.0675
    SETDIJ:  cpu time    2.0421: real time    2.0481
     EDDAV:  cpu time  352.1633: real time  353.4115
       DOS:  cpu time    0.0054: real time    0.0055
    --------------------------------------------
      LOOP:  cpu time  355.2738: real time  356.5327

 eigenvalue-minimisations  :  8712
 total energy-change (2. order) : 0.1312750E+05  (-0.5078632E+05)
 number of electron    1264.0000000 magnetization 
 augmentation part     1264.0000000 magnetization 

 DIPCOR: dipole corrections for dipol
 direction  3 min pos    79,
 dipolmoment           0.000000      0.000000     10.611156 electrons x Angstroem
 Tr[quadrupol]    -96629.139631

 energy correction for charged system         0.000000 eV
 dipol+quadrupol energy correction           -0.915466 eV
 added-field ion interaction       1492.722304 eV  (added to PSCEN)


 Free energy of the ion-electron system (eV)
  ---------------------------------------------------
  alpha Z        PSCENC =      1986.87428914
  Ewald energy   TEWEN  =    308539.09004538
  -Hartree energ DENC   =   -371146.92021924
  -exchange      EXHF   =         0.00000000
  -V(xc)+E(xc)   XCENC  =      3806.12135217
  PAW double counting   =     60302.38778424   -59321.72876092
  entropy T*S    EENTRO =        -1.61178413
  eigenvalues    EBANDS =     -6176.25461779
  atomic energy  EATOM  =     75139.53829012
  Solvation  Ediel_sol  =         0.00000000
  ---------------------------------------------------
  free energy    TOTEN  =     13127.49637898 eV

  energy without entropy =    13129.10816311  energy(sigma->0) =    13128.30227104


--------------------------------------------------------------------------------------------------------




--------------------------------------- Iteration      1(   2)  ---------------------------------------


     EDDAV:  cpu time  412.2888: real time  413.7580
       DOS:  cpu time    0.0030: real time    0.0030
    --------------------------------------------
      LOOP:  cpu time  412.2919: real time  413.7611

 eigenvalue-minimisations  : 10592
 total energy-change (2. order) :-0.1253841E+05  (-0.1214664E+05)
 number of electron    1264.0000000 magnetization 
 augmentation part     1264.0000000 magnetization 

 DIPCOR: dipole corrections for dipol
 direction  3 min pos    79,
 dipolmoment           0.000000      0.000000     10.611156 electrons x Angstroem
 Tr[quadrupol]    -96629.139631

 energy correction for charged system         0.000000 eV
 dipol+quadrupol energy correction           -0.915466 eV
 added-field ion interaction       1492.722304 eV  (added to PSCEN)


 Free energy of the ion-electron system (eV)
  ---------------------------------------------------
  alpha Z        PSCENC =      1986.87428914
  Ewald energy   TEWEN  =    308539.09004538
  -Hartree energ DENC   =   -371146.92021924
  -exchange      EXHF   =         0.00000000
  -V(xc)+E(xc)   XCENC  =      3806.12135217
  PAW double counting   =     60302.38778424   -59321.72876092
  entropy T*S    EENTRO =        -0.00000000
  eigenvalues    EBANDS =    -18716.27790279
  atomic energy  EATOM  =     75139.53829012
  Solvation  Ediel_sol  =         0.00000000
  ---------------------------------------------------
  free energy    TOTEN  =       589.08487810 eV

  energy without entropy =      589.08487810  energy(sigma->0) =      589.08487810


--------------------------------------------------------------------------------------------------------




--------------------------------------- Iteration      1(   3)  ---------------------------------------


     EDDAV:  cpu time  359.8766: real time  361.1790
       DOS:  cpu time    0.0031: real time    0.0031
    --------------------------------------------
      LOOP:  cpu time  359.8797: real time  361.1821

 eigenvalue-minimisations  :  8992
 total energy-change (2. order) :-0.2609735E+04  (-0.2597710E+04)
 number of electron    1264.0000000 magnetization 
 augmentation part     1264.0000000 magnetization 

 DIPCOR: dipole corrections for dipol
 direction  3 min pos    79,
 dipolmoment           0.000000      0.000000     10.611156 electrons x Angstroem
 Tr[quadrupol]    -96629.139631

 energy correction for charged system         0.000000 eV
 dipol+quadrupol energy correction           -0.915466 eV
 added-field ion interaction       1492.722304 eV  (added to PSCEN)


 Free energy of the ion-electron system (eV)
[...]
     11.78273      0.48924     16.90040         0.000431     -0.001780      0.004367
     13.06810      9.21327     19.44838        -0.083526      0.081206      0.182936
     10.19104      8.89665     19.27590        -0.113006      0.061271      0.005862
      1.94841     11.98909     10.92575        -0.051525     -0.123554      0.137735
      9.57275     14.86380     15.45942        -0.011728      0.005630     -0.000882
     19.70678      8.99968     12.57709         0.124556     -0.172626     -0.254531
      0.40009      0.82752     10.58160         0.087009     -0.159380      0.403476
      0.34415      6.14988     10.51358         0.044997      0.019084      0.147531
      0.21559      3.07675     15.38626        -0.003176     -0.003150     -0.000994
     14.25393     12.90803     16.42462        -0.008129     -0.003851      0.005586
      5.01015      9.62852     13.70225         0.000160      0.000722     -0.000199
     21.42279     14.69170     13.34099         0.213061      0.225667     -0.556168
     12.18742      3.00159     11.45195         0.177940     -0.073009      0.561608
      9.79819      4.06672     15.83142         0.001257     -0.001054     -0.002254
      1.95373      3.52197     10.94102         0.075818     -0.104384      0.159403
     16.43234      1.81267     13.10088         0.077087     -0.083202     -0.276858
     15.56990     17.27355     11.76084        -0.466131      4.543073     -0.145593
     15.21965     10.13359     11.56390         0.073711      0.066475      0.333858
      4.64622     17.53531     12.47363        -0.691441      6.160195     -0.269061
      5.01575      7.65411     16.22518        -0.002462      0.003777      0.001046
     15.76236     15.73321     15.98417        -0.003441     -0.004949      0.001140
      5.06666     12.62840     14.48054        -0.001503     -0.000420     -0.000096
      8.63383     14.32142     12.34509        -0.284820     -0.029236      0.166669
     18.66049     17.09112     16.00830        -0.002495     -0.001128      0.000962
     20.58960     17.52783     13.76393        -0.000052     -0.000418      0.000562
     13.48711     11.40478     13.75624         0.001448      0.001051      0.000766
     13.80769      3.08802     14.12139        -0.001021     -0.005303      0.001270
     20.08975      3.75648     13.31200        -0.139528     -0.011251     -0.389404
     19.55730     11.93892     17.36098        -0.011000     -0.001534     -0.001485
      3.13099      7.52942      9.59393        -0.072598     -0.141310      0.133037
     18.51026      6.07285     11.87902        -0.270552      0.113714      0.152388
      9.34523      4.21643     10.64590        -0.136445     -0.305791      0.305123
     20.03945     14.59049     16.03588        -0.009125     -0.002122      0.001387
      6.62500     17.93485     14.77410         0.000774     -0.002119     -0.002228
      0.54021      6.98812     13.50205         0.226887      0.196426     -0.316866
     13.45118     13.60314     11.70944         3.901884     -0.885572     -2.390224
      5.39024     14.63805     12.15046         0.125358     -0.597640      0.099185
     13.90285      6.14589     14.74171         0.000068     -0.005741      0.003147
     22.83275      5.93937     16.19716        -0.001382      0.003753     -0.001903
     20.81045      1.46044     11.40393         0.014913      0.035406      0.199254
      2.45207      4.53707     13.92155        -0.000805     -0.002380     -0.000165
      1.12715     14.28354     12.97472        -0.176404     -0.581750     -0.196348
      5.43178      4.73420     15.08057        -0.000304     -0.000309     -0.000957
     13.14328      5.67139     10.24864         8.362880     -5.343145     -3.491741
     11.15246     12.33088     16.69634        -0.007048      0.009008     -0.014965
      6.57376     14.97037     16.07188        -0.012171      0.005149      0.005264
      4.88127     12.65920      9.99509         0.087454     -0.060013      0.097821
     17.33074     13.87626     14.40667        -0.008460     -0.002578      0.000079
     23.08983      0.82048     14.79900        -0.002911     -0.001150      0.001336
     16.46059     14.35206     11.67438        -0.687692     -1.346677      0.434751
     18.45037      2.06994     15.50234        -0.000266     -0.002404     -0.001986
     10.68290      6.95195     11.00304        -1.140664      0.548459      0.558676
     10.52937     17.95026     15.98333        -0.000289     -0.001731      0.002262
     11.90307      1.73796     15.75436        -0.000179     -0.000842     -0.001631
      5.71814      7.71222     11.31648         0.039465     -0.113666     -0.039812
     15.41693      6.98005     12.10687        -0.132786     -0.454531     -0.739640
     10.77832      6.76467     14.21953         0.005333     -0.001323     -0.000063
      7.89661     11.69049     10.72869        -0.119987     -0.057583      0.050075
     18.80245      9.64097     15.58256        -0.005816     -0.000919     -0.003376
      1.62029     17.28844     12.91761        -0.339084      6.439823     -0.485186
      4.96103      3.61769     10.04353        -0.094208     -0.039420      0.160159
      1.83153      9.95162     13.29887         0.017999     -0.155902     -0.263364
     13.05344     16.44546     12.76235       -22.322527    -15.873318      4.755715
     16.81099     11.59397     16.39120        -0.011397     -0.002944     -0.000213
      6.71066      4.80730     12.34244        -0.209444      0.039876     -0.771172
      2.05338     12.32899     15.26385        -0.007286     -0.001831     -0.002439
      8.28096      1.33596     15.54331         0.003524     -0.005808     -0.001424
     11.38451      9.72774     15.34686         0.025820     -0.004977      0.017195
     11.46763      9.89960     18.70752        -0.115350      0.055824      0.006091
 -----------------------------------------------------------------------------------
    total drift:                               -1.108342      0.096544      0.287078


--------------------------------------------------------------------------------------------------------



  FREE ENERGIE OF THE ION-ELECTRON SYSTEM (eV)
  ---------------------------------------------------
  free  energy   TOTEN  =     -1894.43185269 eV

  energy  without entropy=    -1894.43185269  energy(sigma->0) =    -1894.43185269

 d Force = 0.3843234E-04[ 0.346E-04, 0.423E-04]  d Energy = 0.6994054E-04-0.315E-04
 d Force =-0.7545352E-01[-0.755E-01,-0.755E-01]  d Ewald  =-0.7545352E-01-0.348E-08


--------------------------------------------------------------------------------------------------------


    POTLOK:  cpu time    3.0396: real time    3.0494


--------------------------------------------------------------------------------------------------------


 NEB: the previous image is higher in energy: F
 NEB: the next image is higher in energy    : F
 NEB: image is at an extrema
 NEB: diff energy (min, max):     0.015934    0.084850

 NEB: Tangent
 ----------------------------------------------
      0.00399     -0.09009     -0.26377
      0.17826     -0.24585     -0.38357
      0.04627     -0.07000     -0.04359
      0.07975     -0.02093     -0.05035
      0.00200      0.00084      0.00064
      0.00000      0.00000      0.00000
      0.00000      0.00000      0.00000
      0.00000      0.00000      0.00000
      0.00000      0.00000      0.00000
      0.00000      0.00000      0.00000
      0.00000      0.00000      0.00000
      0.00043     -0.00001      0.00120
      0.00000      0.00000      0.00000
      0.00026      0.00060     -0.00059
      0.01174      0.00642     -0.01440
     -0.00077     -0.00022      0.00155
     -0.00057     -0.00099      0.00257
      0.00000      0.00000      0.00000
      0.00000      0.00000      0.00000
      0.00236      0.00122      0.00200
      0.00000      0.00000      0.00000
      0.00000      0.00000      0.00000
      0.00000      0.00000      0.00000
      0.00000      0.00000      0.00000
      0.00000      0.00000      0.00000
     -0.00359     -0.00204      0.00155
      0.00000      0.00000      0.00000
      0.00000      0.00000      0.00000
      0.00000      0.00000      0.00000
      0.00000      0.00000      0.00000
      0.00000      0.00000      0.00000
      0.00000      0.00000      0.00000
     -0.00105      0.00299     -0.00106
     -0.01050     -0.00615      0.00114
     -0.00226      0.00013      0.00034
      0.00000      0.00000      0.00000
      0.00000      0.00000      0.00000
      0.00000      0.00000      0.00000
      0.00000      0.00000      0.00000
      0.00000      0.00000      0.00000
      0.00000      0.00000      0.00000
      0.00000      0.00000      0.00000
      0.00000      0.00000      0.00000
      0.00000      0.00000      0.00000
     -0.00001      0.00030      0.00169
      0.00008     -0.00079      0.00172
      0.00287      0.00425      0.00009
      0.00110     -0.00177      0.00395
      0.18296     -0.02419      0.09335
      0.09102      0.00373      0.06322
      0.05570     -0.15027     -0.00770
      0.03897     -0.00587     -0.05195
      0.05185      0.00771      0.03297
      0.03116      0.13257     -0.09258
      0.07177     -0.00558     -0.05952
      0.03552     -0.09127      0.10199
      0.00000      0.00000      0.00000
      0.00000      0.00000      0.00000
     -0.00105      0.00159     -0.00272
      0.00017      0.00066      0.00094
      0.00004     -0.00000     -0.00013
      0.00000      0.00000      0.00000
      0.00000      0.00000      0.00000
      0.00000      0.00000      0.00000
      0.00000      0.00000      0.00000
      0.00095      0.00014     -0.00127
      0.00000      0.00000      0.00000
      0.00000      0.00000      0.00000
     -0.00151      0.00302      0.00097
      0.00000      0.00000      0.00000
     -0.00231     -0.00066     -0.00196
      0.00000      0.00000      0.00000
      0.00000      0.00000      0.00000
      0.00000      0.00000      0.00000
     -0.00178     -0.00120     -0.00036
      0.00006     -0.00029     -0.00032
      0.08396      0.07751      0.06967
      0.00000      0.00000      0.00000
      0.00000      0.00000      0.00000
      0.00000      0.00000      0.00000
      0.00000      0.00000      0.00000
      0.00000      0.00000      0.00000
      0.00048      0.00044     -0.00053
      0.00090      0.00078      0.00005
      0.02816     -0.02053     -0.00828
     -0.00218     -0.00024     -0.00095
      0.00000      0.00000      0.00000
      0.00000      0.00000      0.00000
      0.00000      0.00000      0.00000
      0.00005     -0.00134     -0.00081
      0.00000      0.00000      0.00000
      0.00000      0.00000      0.00000
      0.00000      0.00000      0.00000
      0.00000      0.00000      0.00000
      0.00000      0.00000      0.00000
     -0.00067      0.00067     -0.00114
     -0.00062     -0.00050     -0.00116
     -0.00167     -0.00454     -0.00097
      0.00000      0.00000      0.00000
      0.00000      0.00000      0.00000
      0.00137      0.00045     -0.00046
      0.00000      0.00000      0.00000
     -0.00771     -0.00610     -0.00090
     -0.00178      0.00467     -0.00348
      0.00000      0.00000      0.00000
     -0.00951      0.00061      0.00122
     -0.00064      0.00260     -0.00473
      0.00027      0.00015     -0.00036
     -0.00044     -0.00053     -0.00049
      0.00000      0.00000      0.00000
      0.00789     -0.01426     -0.01142
     -0.00134      0.00057     -0.00068
      0.00000      0.00000      0.00000
      0.00000      0.00000      0.00000
      0.00000      0.00000      0.00000
     -0.00853     -0.00740      0.00400
     -0.00025      0.00002     -0.00014
      0.00000      0.00000      0.00000
     -0.00002      0.00311     -0.00006
     -0.00042     -0.00023     -0.00057
      0.00000      0.00000      0.00000
      0.00000      0.00000      0.00000
      0.00000      0.00000      0.00000
     -0.17071      0.03045     -0.06212
      0.00000      0.00000      0.00000
      0.00000      0.00000      0.00000
      0.05287     -0.01140      0.05239
      0.00000      0.00000      0.00000
      0.00457      0.00631     -0.03682
      0.00000      0.00000      0.00000
     -0.00211      0.00007     -0.00199
      0.00000      0.00000      0.00000
      0.02278     -0.01156      0.00287
      0.00000      0.00000      0.00000
      0.00053      0.00071     -0.00062
      0.00000      0.00000      0.00000
      0.00026      0.00017     -0.00049
     -0.00102      0.00205     -0.00094
      0.00000      0.00000      0.00000
     -0.00377     -0.00118     -0.00238
      0.00000      0.00000      0.00000
     -0.00113     -0.00183     -0.00202
      0.00000      0.00000      0.00000
      0.00000      0.00000      0.00000
     -0.00004     -0.00000     -0.00069
      0.00000      0.00000      0.00000
      0.00000      0.00000      0.00000
      0.00062     -0.00001      0.00109
      0.00000      0.00000      0.00000
      0.00000      0.00000      0.00000
      0.00000      0.00000      0.00000
      0.00000      0.00000      0.00000
      0.00074     -0.00131     -0.00049
     -0.00331      0.00077     -0.00122
      0.00000      0.00000      0.00000
      0.00000      0.00000      0.00000
      0.00000      0.00000      0.00000
      0.00880     -0.00500      0.00400
      0.00000      0.00000      0.00000
     -0.00001     -0.00014     -0.00013
      0.00125      0.00050     -0.00032
      0.00087     -0.00034     -0.00091
      0.00000      0.00000      0.00000
     -0.00254     -0.00001     -0.00060
      0.00000      0.00000      0.00000
     -0.02224      0.00513      0.01050
      0.00000      0.00000      0.00000
     -0.00057     -0.00024     -0.00104
      0.00002     -0.00041      0.00004
      0.00000      0.00000      0.00000
     -0.00182     -0.00010     -0.00106
      0.00000      0.00000      0.00000
      0.00030      0.00024     -0.00016
      0.00000      0.00000      0.00000
      0.00174     -0.00025     -0.00040
      0.00000      0.00000      0.00000
      0.00000      0.00000      0.00000
      0.00023      0.00018     -0.00012
      0.00000      0.00000      0.00000
      0.00000      0.00000      0.00000
      0.00000      0.00000      0.00000
      0.00000      0.00000      0.00000
      0.00157      0.00037     -0.00163
     -0.00027     -0.00170      0.00041
      0.00000      0.00000      0.00000
      0.00000      0.00000      0.00000
      0.00000      0.00000      0.00000
      0.00000      0.00000      0.00000
      0.00000      0.00000      0.00000
      0.00064      0.00187     -0.00213
      0.00000      0.00000      0.00000
     -0.00093      0.00081     -0.00006
      0.00000      0.00000      0.00000
      0.00000      0.00000      0.00000
      0.00000      0.00000      0.00000
      0.00000      0.00000      0.00000
      0.00000      0.00000      0.00000
      0.00000      0.00000      0.00000
     -0.00097     -0.00155     -0.00047
     -0.02200     -0.03625      0.02201
      0.00237      0.00473     -0.00140
      0.00014      0.00055     -0.00100
     -0.00265      0.00528     -0.00153
     -0.00454      0.00223     -0.00290
     -0.00223     -0.00051     -0.00140
     -0.01786     -0.00493      0.00229
      0.00001     -0.00009     -0.00008
     -0.00086      0.00113     -0.00060
     -0.00068      0.00203      0.00027
     -0.17777      0.21319      0.43795
     -0.25539      0.14792      0.01576
      0.00000      0.00000      0.00000
     -0.00754      0.01485     -0.00967
      0.00000      0.00000      0.00000
      0.00000      0.00000      0.00000
      0.00000      0.00000      0.00000
      0.00031     -0.00040      0.00002
     -0.01292     -0.00776      0.01384
     -0.00043     -0.00016      0.00033
      0.00000      0.00000      0.00000
      0.00000      0.00000      0.00000
     -0.00024      0.00002      0.00088
      0.00000      0.00000      0.00000
      0.00000      0.00000      0.00000
      0.00000      0.00000      0.00000
      0.00000      0.00000      0.00000
      0.00000      0.00000      0.00000
     -0.00006      0.00046      0.00046
     -0.00455     -0.00466      0.00373
     -0.00072     -0.00032     -0.00001
      0.00000      0.00000      0.00000
     -0.00231     -0.00148     -0.00058
     -0.00027     -0.00016      0.00024
      0.00438      0.00276      0.00058
      0.00056     -0.00218      0.00020
      0.00000      0.00000      0.00000
     -0.00332      0.00056     -0.00004
      0.00000      0.00000      0.00000
      0.00000      0.00000      0.00000
      0.00000      0.00000      0.00000
     -0.00155     -0.00037     -0.00038
     -0.00043      0.00060      0.00025
      0.00000      0.00000      0.00000
      0.00000      0.00000      0.00000
      0.00000      0.00000      0.00000
      0.00571     -0.00716     -0.00302
      0.00021      0.00030     -0.00009
      0.00000      0.00000      0.00000
     -0.00034     -0.00010      0.00022
      0.00000      0.00000      0.00000
     -0.00061      0.00060     -0.00021
      0.00000      0.00000      0.00000
     -0.01095      0.01680     -0.03813
     -0.00237      0.00013      0.00095
      0.00000      0.00000      0.00000
     -0.00238     -0.00152      0.00065
     -0.00008     -0.00004      0.00024
      0.00000      0.00000      0.00000
     -0.00070     -0.00021     -0.00038
      0.00000      0.00000      0.00000
     -0.00119      0.00555      0.00117
      0.00033      0.00255      0.00113
      0.00000      0.00000      0.00000
      0.00000      0.00000      0.00000
      0.00986     -0.00535      0.00198
      0.00000      0.00000      0.00000
     -0.00103      0.00007     -0.00014
      0.00000      0.00000      0.00000
      0.00000      0.00000      0.00000
      0.00000      0.00000      0.00000
      0.00000      0.00000      0.00000
     -0.00426     -0.00038      0.00063
      0.00000      0.00000      0.00000
     -0.00031      0.00005      0.00036
     -0.00160      0.00155      0.00044
      0.06416     -0.01445      0.03622
     -0.26530      0.13568      0.01480

 NEB: forces: par spring, perp REAL, dneb     0.002393    0.112324    0.000000
 NEB: distance to prev, next image, angle between     0.624509    0.624987  107.808215
 NEB: projections on to tangent (spring, REAL)     0.002393    0.420751

 stress matrix after NEB project (eV)
    -32.59455      0.02682      0.09460
      0.02682    -33.44762     -0.01576
      0.09460     -0.01576    -25.35619
  FORCES: max atom, RMS     0.028437    0.006750
  FORCE total and by dimension    0.112349    0.026184
  Stress total and by dimension   53.142303   33.447622


--------------------------------------------------------------------------------------------------------


  
 reached required accuracy - stopping structural energy minimisation
     LOOP+:  cpu time  517.9066: real time  519.8606
    4ORBIT:  cpu time    0.0000: real time    0.0000

 total amount of memory used by VASP MPI-rank0  2555036. kBytes
=======================================================================

   base      :      30000. kBytes
   nonlr-proj:      16952. kBytes
   fftplans  :      79581. kBytes
   grid      :     173670. kBytes
   one-center:       1088. kBytes
   wavefun   :    2253745. kBytes

  
  
 General timing and accounting informations for this job:
 ========================================================
  
                  Total CPU time used (sec):     5940.031
                            User time (sec):     5935.207
                          System time (sec):        4.824
                         Elapsed time (sec):     5995.587
  
                   Maximum memory used (kb):     2831316.
                   Average memory used (kb):           0.
  
                          Minor page faults:      1388440
                          Major page faults:           94
                 Voluntary context switches:         2301
