 vasp.5.4.4.18Apr17-6-g9f103f2a35 (build Oct 20 2021 08:33:53) complex           
 executed on             LinuxGNU date 2024.03.26  21:02:13
 running on   32 total cores
 distrk:  each k-point on   32 cores,    1 groups
 distr:  one band on NCORES_PER_BAND=   4 cores,    8 groups


--------------------------------------------------------------------------------------------------------


 INCAR:
 POTCAR:    PAW_PBE C 08Apr2002                   
 POTCAR:    PAW_PBE H 15Jun2001                   
 POTCAR:    PAW_PBE O 08Apr2002                   
 POTCAR:    PAW_PBE Si 05Jan2001                  
 POTCAR:    PAW_PBE W 08Apr2002                   
 POTCAR:    PAW_PBE C 08Apr2002                   
   VRHFIN =C: s2p2                                                              
   LEXCH  = PE                                                                  
   EATOM  =   147.1560 eV,   10.8157 Ry                                         
                                                                                
   TITEL  = PAW_PBE C 08Apr2002                                                 
   LULTRA =        F    use ultrasoft PP ?                                      
   IUNSCR =        1    unscreen: 0-lin 1-nonlin 2-no                           
   RPACOR =    1.200    partial core radius                                     
   POMASS =   12.011; ZVAL   =    4.000    mass and valenz                      
   RCORE  =    1.500    outmost cutoff radius                                   
   RWIGS  =    1.630; RWIGS  =    0.863    wigner-seitz radius (au A)           
   ENMAX  =  400.000; ENMIN  =  300.000 eV                                      
   ICORE  =        2    local potential                                         
   LCOR   =        T    correct aug charges                                     
   LPAW   =        T    paw PP                                                  
   EAUG   =  644.873                                                            
   DEXC   =    0.000                                                            
   RMAX   =    1.529    core radius for proj-oper                               
   RAUG   =    1.300    factor for augmentation sphere                          
   RDEP   =    1.501    radius for radial grids                                 
   RDEPT  =    1.300    core radius for aug-charge                              
                                                                                
   Atomic configuration                                                         
    4 entries                                                                   
     n  l   j            E        occ.                                          
     1  0  0.50      -273.3789   2.0000                                         
     2  0  0.50       -13.7508   2.0000                                         
     2  1  0.50        -5.2854   2.0000                                         
     3  2  1.50        -5.4423   0.0000                                         
   Description                                                                  
     l       E           TYP  RCUT    TYP  RCUT                                 
     0    -13.7508458     23  1.200                                             
     0     -8.2022199     23  1.200                                             
     1     -5.2854383     23  1.500                                             
     1     34.0145650     23  1.500                                             
     2     -5.4423304      7  1.500                                             
  local pseudopotential read in
  partial core-charges read in
  partial kinetic energy density read in
  atomic valenz-charges read in
  non local Contribution for L=           0  read in
    real space projection operators read in
  non local Contribution for L=           0  read in
    real space projection operators read in
  non local Contribution for L=           1  read in
    real space projection operators read in
  non local Contribution for L=           1  read in
    real space projection operators read in
    PAW grid and wavefunctions read in

   number of l-projection  operators is LMAX  =           4
   number of lm-projection operators is LMMAX =           8

 POTCAR:    PAW_PBE H 15Jun2001                   
   VRHFIN =H: ultrasoft test                                                    
   LEXCH  = PE                                                                  
   EATOM  =    12.4884 eV,    0.9179 Ry                                         
                                                                                
   TITEL  = PAW_PBE H 15Jun2001                                                 
   LULTRA =        F    use ultrasoft PP ?                                      
   IUNSCR =        0    unscreen: 0-lin 1-nonlin 2-no                           
   RPACOR =    0.000    partial core radius                                     
   POMASS =    1.000; ZVAL   =    1.000    mass and valenz                      
   RCORE  =    1.100    outmost cutoff radius                                   
   RWIGS  =    0.700; RWIGS  =    0.370    wigner-seitz radius (au A)           
   ENMAX  =  250.000; ENMIN  =  200.000 eV                                      
   RCLOC  =    0.701    cutoff for local pot                                    
   LCOR   =        T    correct aug charges                                     
   LPAW   =        T    paw PP                                                  
   EAUG   =  400.000                                                            
   RMAX   =    1.123    core radius for proj-oper                               
   RAUG   =    1.200    factor for augmentation sphere                          
   RDEP   =    1.112    radius for radial grids                                 
   RDEPT  =    0.926    core radius for aug-charge                              
                                                                                
   Atomic configuration                                                         
    2 entries                                                                   
     n  l   j            E        occ.                                          
     1  0  0.50        -6.4927   1.0000                                         
     2  1  0.50        -3.4015   0.0000                                         
   Description                                                                  
     l       E           TYP  RCUT    TYP  RCUT                                 
     0     -6.4927494     23  1.100                                             
     0      6.8029130     23  1.100                                             
     1     -4.0817478     23  1.100                                             
  local pseudopotential read in
  atomic valenz-charges read in
  non local Contribution for L=           0  read in
    real space projection operators read in
  non local Contribution for L=           0  read in
    real space projection operators read in
  non local Contribution for L=           1  read in
    real space projection operators read in
    PAW grid and wavefunctions read in

   number of l-projection  operators is LMAX  =           3
   number of lm-projection operators is LMMAX =           5

 POTCAR:    PAW_PBE O 08Apr2002                   
   VRHFIN =O: s2p4                                                              
   LEXCH  = PE                                                                  
   EATOM  =   432.3788 eV,   31.7789 Ry                                         
                                                                                
   TITEL  = PAW_PBE O 08Apr2002                                                 
   LULTRA =        F    use ultrasoft PP ?                                      
   IUNSCR =        1    unscreen: 0-lin 1-nonlin 2-no                           
   RPACOR =    1.200    partial core radius                                     
   POMASS =   16.000; ZVAL   =    6.000    mass and valenz                      
   RCORE  =    1.520    outmost cutoff radius                                   
   RWIGS  =    1.550; RWIGS  =    0.820    wigner-seitz radius (au A)           
   ENMAX  =  400.000; ENMIN  =  300.000 eV                                      
   ICORE  =        2    local potential                                         
   LCOR   =        T    correct aug charges                                     
   LPAW   =        T    paw PP                                                  
   EAUG   =  605.392                                                            
   DEXC   =    0.000                                                            
   RMAX   =    1.553    core radius for proj-oper                               
   RAUG   =    1.300    factor for augmentation sphere                          
   RDEP   =    1.550    radius for radial grids                                 
   RDEPT  =    1.329    core radius for aug-charge                              
                                                                                
   Atomic configuration                                                         
    4 entries                                                                   
     n  l   j            E        occ.                                          
     1  0  0.50      -514.6923   2.0000                                         
     2  0  0.50       -23.9615   2.0000                                         
     2  1  0.50        -9.0305   4.0000                                         
     3  2  1.50        -9.5241   0.0000                                         
   Description                                                                  
     l       E           TYP  RCUT    TYP  RCUT                                 
     0    -23.9615318     23  1.200                                             
     0     -9.5240782     23  1.200                                             
     1     -9.0304911     23  1.520                                             
     1      8.1634956     23  1.520                                             
     2     -9.5240782      7  1.500                                             
  local pseudopotential read in
  partial core-charges read in
  partial kinetic energy density read in
  kinetic energy density of atom read in
  atomic valenz-charges read in
  non local Contribution for L=           0  read in
    real space projection operators read in
  non local Contribution for L=           0  read in
    real space projection operators read in
  non local Contribution for L=           1  read in
    real space projection operators read in
  non local Contribution for L=           1  read in
    real space projection operators read in
    PAW grid and wavefunctions read in

   number of l-projection  operators is LMAX  =           4
   number of lm-projection operators is LMMAX =           8

 POTCAR:    PAW_PBE Si 05Jan2001                  
   VRHFIN =Si: s2p2                                                             
   LEXCH  = PE                                                                  
   EATOM  =   103.0669 eV,    7.5752 Ry                                         
                                                                                
   TITEL  = PAW_PBE Si 05Jan2001                                                
   LULTRA =        F    use ultrasoft PP ?                                      
   IUNSCR =        1    unscreen: 0-lin 1-nonlin 2-no                           
   RPACOR =    1.500    partial core radius                                     
   POMASS =   28.085; ZVAL   =    4.000    mass and valenz                      
   RCORE  =    1.900    outmost cutoff radius                                   
   RWIGS  =    2.480; RWIGS  =    1.312    wigner-seitz radius (au A)           
   ENMAX  =  245.345; ENMIN  =  184.009 eV                                      
   ICORE  =        2    local potential                                         
   LCOR   =        T    correct aug charges                                     
   LPAW   =        T    paw PP                                                  
   EAUG   =  322.069                                                            
   DEXC   =    0.000                                                            
   RMAX   =    1.950    core radius for proj-oper                               
   RAUG   =    1.300    factor for augmentation sphere                          
   RDEP   =    1.993    radius for radial grids                                 
   RDEPT  =    1.837    core radius for aug-charge                              
                                                                                
   Atomic configuration                                                         
    6 entries                                                                   
     n  l   j            E        occ.                                          
     1  0  0.50     -1785.8828   2.0000                                         
     2  0  0.50      -139.4969   2.0000                                         
     2  1  1.50       -95.5546   6.0000                                         
     3  0  0.50       -10.8127   2.0000                                         
     3  1  0.50        -4.0811   2.0000                                         
     3  2  1.50        -4.0817   0.0000                                         
   Description                                                                  
     l       E           TYP  RCUT    TYP  RCUT                                 
     0    -10.8127223     23  1.900                                             
     0     -7.6451159     23  1.900                                             
     1     -4.0811372     23  1.900                                             
     1      2.4879257     23  1.900                                             
     2     -4.0817478      7  1.900                                             
  local pseudopotential read in
  partial core-charges read in
  partial kinetic energy density read in
  atomic valenz-charges read in
  non local Contribution for L=           0  read in
    real space projection operators read in
  non local Contribution for L=           0  read in
    real space projection operators read in
  non local Contribution for L=           1  read in
    real space projection operators read in
  non local Contribution for L=           1  read in
    real space projection operators read in
    PAW grid and wavefunctions read in

   number of l-projection  operators is LMAX  =           4
   number of lm-projection operators is LMMAX =           8

 POTCAR:    PAW_PBE W 08Apr2002                   
   VRHFIN =W : 6s5d                                                             
   LEXCH  = PE                                                                  
   EATOM  =   204.6103 eV,   15.0384 Ry                                         
                                                                                
   TITEL  = PAW_PBE W 08Apr2002                                                 
   LULTRA =        F    use ultrasoft PP ?                                      
   IUNSCR =        1    unscreen: 0-lin 1-nonlin 2-no                           
   RPACOR =    2.330    partial core radius                                     
   POMASS =  183.850; ZVAL   =    6.000    mass and valenz                      
   RCORE  =    2.750    outmost cutoff radius                                   
   RWIGS  =    2.750; RWIGS  =    1.455    wigner-seitz radius (au A)           
   ENMAX  =  223.057; ENMIN  =  167.293 eV                                      
   RCLOC  =    2.147    cutoff for local pot                                    
   LCOR   =        T    correct aug charges                                     
   LPAW   =        T    paw PP                                                  
   EAUG   =  373.438                                                            
   DEXC   =    0.000                                                            
   RMAX   =    2.801    core radius for proj-oper                               
   RAUG   =    1.300    factor for augmentation sphere                          
   RDEP   =    2.886    radius for radial grids                                 
   RDEPT  =    2.230    core radius for aug-charge                              
                                                                                
   Atomic configuration                                                         
   16 entries                                                                   
     n  l   j            E        occ.                                          
     1  0  0.50    -69465.5836   2.0000                                         
     2  0  0.50    -11986.2642   2.0000                                         
     2  1  1.50    -10479.8616   6.0000                                         
     3  0  0.50     -2759.0758   2.0000                                         
     3  1  1.50     -2313.1857   6.0000                                         
     3  2  2.50     -1801.1185  10.0000                                         
     4  0  0.50      -567.6791   2.0000                                         
     4  1  1.50      -421.4694   6.0000                                         
     4  2  2.50      -236.3473  10.0000                                         
     4  3  3.50       -31.2666  14.0000                                         
     5  0  0.50       -77.1085   2.0000                                         
     5  1  1.50       -41.3856   6.0000                                         
     5  2  2.50        -3.3185   5.0000                                         
     6  0  0.50        -5.1438   1.0000                                         
     6  1  0.50        -3.8096   0.0000                                         
     5  3  2.50        -1.3606   0.0000                                         
   Description                                                                  
     l       E           TYP  RCUT    TYP  RCUT                                 
     2     -3.3185288     23  2.500                                             
     2     -1.5965414     23  2.500                                             
     0     -5.1438054     23  2.500                                             
     0      4.9117504     23  2.500                                             
     1      2.7211652     23  2.750                                             
     1     27.2116520     23  2.750                                             
  local pseudopotential read in
  partial core-charges read in
  partial kinetic energy density read in
  atomic valenz-charges read in
  non local Contribution for L=           2  read in
    real space projection operators read in
  non local Contribution for L=           2  read in
    real space projection operators read in
  non local Contribution for L=           0  read in
    real space projection operators read in
  non local Contribution for L=           0  read in
    real space projection operators read in
  non local Contribution for L=           1  read in
    real space projection operators read in
  non local Contribution for L=           1  read in
    real space projection operators read in
    PAW grid and wavefunctions read in

   number of l-projection  operators is LMAX  =           6
   number of lm-projection operators is LMMAX =          18

 Optimization of the real space projectors (new method)

 maximal supplied QI-value         = 25.13
 optimisation between [QCUT,QGAM] = [ 11.31, 22.87] = [ 35.82,146.48] Ry 
 Optimized for a Real-space Cutoff    1.00 Angstroem

   l    n(q)    QCUT    max X(q) W(low)/X(q) W(high)/X(q)  e(spline) 
   0      7    11.310   115.676    0.43E-03    0.13E-02    0.19E-06
   0      7    11.310    87.132    0.43E-03    0.13E-02    0.18E-06
   1      6    11.310     4.429    0.42E-03    0.74E-03    0.11E-06
   1      6    11.310     2.733    0.34E-03    0.55E-03    0.92E-07
 Optimization of the real space projectors (new method)

 maximal supplied QI-value         = 34.20
 optimisation between [QCUT,QGAM] = [ 11.29, 22.57] = [ 35.68,142.71] Ry 
 Optimized for a Real-space Cutoff    1.16 Angstroem

   l    n(q)    QCUT    max X(q) W(low)/X(q) W(high)/X(q)  e(spline) 
   0      8    11.287    19.460    0.40E-03    0.73E-03    0.16E-06
   0      8    11.287    12.209    0.38E-03    0.70E-03    0.15E-06
   1      7    11.287     4.655    0.22E-03    0.25E-04    0.22E-06
 Optimization of the real space projectors (new method)

 maximal supplied QI-value         = 24.76
 optimisation between [QCUT,QGAM] = [ 11.39, 22.77] = [ 36.31,145.25] Ry 
 Optimized for a Real-space Cutoff    1.00 Angstroem

   l    n(q)    QCUT    max X(q) W(low)/X(q) W(high)/X(q)  e(spline) 
   0      7    11.387    20.381    0.39E-03    0.13E-02    0.15E-06
   0      7    11.387    15.268    0.42E-03    0.14E-02    0.17E-06
   1      6    11.387     5.964    0.41E-03    0.11E-02    0.17E-06
   1      6    11.387     5.382    0.39E-03    0.87E-03    0.15E-06
 Optimization of the real space projectors (new method)

 maximal supplied QI-value         = 19.84
 optimisation between [QCUT,QGAM] = [ 11.31, 22.82] = [ 35.82,145.81] Ry 
 Optimized for a Real-space Cutoff    1.16 Angstroem

   l    n(q)    QCUT    max X(q) W(low)/X(q) W(high)/X(q)  e(spline) 
   0      8    11.310   159.560    0.27E-03    0.30E-03    0.39E-07
   0      8    11.310   115.863    0.27E-03    0.30E-03    0.38E-07
   1      7    11.310    88.339    0.28E-03    0.28E-03    0.77E-07
   1      7    11.310    48.592    0.27E-03    0.27E-03    0.74E-07
 Optimization of the real space projectors (new method)

 maximal supplied QI-value         = 13.61
 optimisation between [QCUT,QGAM] = [ 11.43, 22.86] = [ 36.58,146.31] Ry 
 Optimized for a Real-space Cutoff    1.56 Angstroem

   l    n(q)    QCUT    max X(q) W(low)/X(q) W(high)/X(q)  e(spline) 
   2     10    11.429   130.855    0.22E-03    0.64E-03    0.11E-05
   2     10    11.429   114.007    0.22E-03    0.64E-03    0.11E-05
   0     11    11.429    84.709    0.39E-04    0.67E-04    0.23E-06
   0     11    11.429    49.163    0.35E-04    0.62E-04    0.21E-06
   1     10    11.429    15.765    0.84E-04    0.15E-03    0.24E-06
   1     10    11.429    10.638    0.58E-04    0.12E-03    0.19E-06

 ----------------------------------------------------------------------------- 
|                                                                             |
|  ADVICE TO THIS USER RUNNING 'VASP/VAMP'   (HEAR YOUR MASTER'S VOICE ...):  |
|                                                                             |
|      You enforced a specific xc-type in the INCAR file,                     |
|      a different type was found on the POTCAR file                          |
|          I HOPE YOU KNOW, WHAT YOU ARE  DOING                               |
|                                                                             |
 ----------------------------------------------------------------------------- 

  PAW_PBE C 08Apr2002                   :
 energy of atom  1       EATOM= -147.1560
 kinetic energy error for atom=    0.0076 (will be added to EATOM!!)
  PAW_PBE H 15Jun2001                   :
 energy of atom  2       EATOM=  -12.4884
 kinetic energy error for atom=    0.0020 (will be added to EATOM!!)
  PAW_PBE O 08Apr2002                   :
 energy of atom  3       EATOM= -432.3788
 kinetic energy error for atom=    0.0224 (will be added to EATOM!!)
  PAW_PBE Si 05Jan2001                  :
 energy of atom  4       EATOM= -103.0669
 kinetic energy error for atom=    0.0006 (will be added to EATOM!!)
  PAW_PBE W 08Apr2002                   :
 energy of atom  5       EATOM= -204.6103
 kinetic energy error for atom=    0.0017 (will be added to EATOM!!)


 POSCAR: C  H  O  Si W                           
  positions in direct lattice
  velocities in cartesian coordinates
 exchange correlation table for  LEXCH =        9
   RHO(1)=    0.500       N(1)  =     2000
   RHO(2)=  100.500       N(2)  =     4000

 VTST: version 3.2, (02/03/18)

 CHAIN: initializing optimizer
 
 OPT: Using VASP QUASI-newton optimizer
 CHAIN: Read ICHAIN            0

 POSCAR: C  H  O  Si W                           
  positions in direct lattice
  velocities in cartesian coordinates



--------------------------------------------------------------------------------------------------------


 ion  position               nearest neighbor table
   1  0.570  0.567  0.845-  49 1.11  50 1.11   2 1.53   3 1.53
   2  0.576  0.496  0.813- 211 1.23   4 1.52   1 1.53
   3  0.615  0.626  0.833-  53 1.10  52 1.10  51 1.10   1 1.53
   4  0.533  0.436  0.824-  55 1.10  54 1.10  56 1.10   2 1.52
   5  0.774  0.123  0.651- 131 0.97
   6  0.939  0.298  0.356-  79 0.98
   7  0.806  0.227  0.373- 114 0.97
   8  0.987  0.963  0.325- 123 0.97
   9  0.639  0.983  0.375- 125 0.98
  10  0.833  0.014  0.369- 143 0.97
  11  0.763  0.160  0.458- 181 0.98
  12  0.928  0.269  0.511- 186 0.97
  13  0.596  0.324  0.306- 191 0.97
  14  0.906  0.356  0.616-  97 0.98
  15  0.598  0.376  0.616- 142 0.97
  16  0.606  0.891  0.577- 184 0.99
  17  0.048  0.356  0.651- 190 0.97
  18  0.948  0.439  0.454- 179 0.98
  19  0.759  0.550  0.422-  93 1.00
  20  0.819  0.415  0.640- 171 0.97
  21  0.604  0.588  0.378- 105 0.99
  22  0.731  0.665  0.383- 128 0.99
  23  0.854  0.562  0.420- 134 0.98
  24  0.018  0.623  0.358- 139 0.97
  25  0.841  0.732  0.468- 180 0.99
  26  0.882  0.609  0.722-  59 0.97
  27  0.533  0.005  0.422- 141 0.99
  28  0.236  0.999  0.393- 182 1.00
  29  0.229  0.257  0.319- 197 0.99
  30  0.170  0.349  0.279- 188 0.97
  31  0.354  0.175  0.331- 189 0.98
  32  0.236  0.065  0.323- 196 0.97
  33  0.525  0.845  0.547- 199 0.97
  34  0.396  0.262  0.648-  84 0.97
  35  0.257  0.111  0.597- 135 0.98
  36  0.328  0.506  0.442-  58 0.99
  37  0.422  0.458  0.406- 147 0.98
  38  0.411  0.812  0.389- 185 0.97
  39  0.257  0.675  0.294- 193 0.97
  40  0.325  0.438  0.369- 194 0.98
  41  0.418  0.604  0.339- 195 0.97
  42  0.152  0.507  0.352- 187 0.98
  43  0.606  0.717  0.352-  88 0.97
  44  0.482  0.881  0.444- 198 0.99
  45  0.134  0.340  0.609- 107 0.97
  46  0.088  0.684  0.646- 138 0.97
  47  0.255  0.401  0.682- 183 0.97
  48  0.262  0.835  0.668- 192 0.97
  49  0.527  0.588  0.839-   1 1.11
  50  0.572  0.549  0.884-   1 1.11
  51  0.610  0.673  0.858-   3 1.10
  52  0.612  0.645  0.795-   3 1.10
  53  0.659  0.604  0.838-   3 1.10
  54  0.489  0.458  0.819-   4 1.10
  55  0.539  0.390  0.798-   4 1.10
  56  0.536  0.417  0.862-   4 1.10
  57  0.382  0.668  0.439- 231 1.66 266 1.68
  58  0.360  0.523  0.420-  36 0.99 266 1.67
  59  0.874  0.582  0.692-  26 0.97 237 1.63
  60  0.362  0.977  0.528- 242 1.68 275 1.69
  61  0.046  0.951  0.529- 257 1.63 268 1.66
  62  0.649  0.098  0.489- 235 1.59 224 1.65
  63  0.082  0.072  0.395- 223 1.64 215 1.65
  64  0.465  0.149  0.421- 240 1.65 221 1.65
  65  0.819  0.233  0.483- 239 1.67 236 1.69
  66  0.986  0.200  0.598- 217 1.63 247 1.65
  67  0.288  0.318  0.449- 263 1.65 273 1.66
  68  0.569  0.794  0.442- 244 1.51 271 1.66
  69  0.405  0.991  0.618- 261 1.65 275 1.66
  70  0.190  0.369  0.405- 263 1.66 238 1.67
  71  0.880  0.707  0.638- 241 1.64 237 1.64
  72  0.879  0.986  0.467- 233 1.60 248 1.65
  73  0.314  0.780  0.458- 231 1.65 245 1.67
  74  0.435  0.280  0.380- 240 1.67 260 1.67
  75  0.823  0.484  0.520- 267 1.62 214 1.63
  76  0.997  0.091  0.521- 257 1.68 217 1.69
  77  0.530  0.466  0.626- 276 1.69 277 1.92
  78  0.047  0.939  0.429- 268 1.64 215 1.65
  79  0.976  0.322  0.351-   6 0.98 216 1.65
  80  0.083  0.355  0.376- 216 1.64 238 1.65
  81  0.221  0.748  0.395- 245 1.66 255 1.67
  82  0.052  0.438  0.499- 270 1.64 243 1.65
  83  0.251  0.304  0.588- 251 1.63 228 1.63
  84  0.408  0.211  0.643-  34 0.97 222 1.64
  85  0.478  0.578  0.590- 253 1.69 276 1.70 277 2.56
  86  0.923  0.768  0.557- 241 1.64 220 1.65
  87  0.882  0.127  0.442- 248 1.64 236 1.65
  88  0.586  0.687  0.376-  43 0.97 244 1.68
  89  0.155  0.178  0.376- 269 1.65 223 1.65
  90  0.366  0.784  0.607- 213 1.62 254 1.65
  91  0.924  0.864  0.483- 233 1.62 220 1.66
  92  0.074  0.556  0.442- 270 1.66 212 1.67
  93  0.721  0.574  0.420-  19 1.00 226 1.67
  94  0.088  0.836  0.483- 268 1.50 250 1.65
  95  0.713  0.847  0.433- 225 1.53 258 1.65
  96  0.743  0.069  0.543- 224 1.64 259 1.64
  97  0.931  0.319  0.631-  14 0.98 247 1.63
  98  0.748  0.874  0.612- 232 1.66 229 1.67
  99  0.638  0.547  0.486- 234 1.58 226 1.68
 100  0.570  0.649  0.467- 244 1.52 234 1.63
 101  0.439  0.265  0.555- 265 1.67 222 1.68
 102  0.991  0.747  0.477- 250 1.65 220 1.65
 103  0.667  0.615  0.634- 272 1.64 218 1.66
 104  0.410  0.766  0.515- 231 1.65 213 1.65
 105  0.616  0.537  0.386-  21 0.99 226 1.65
 106  0.730  0.652  0.557- 256 1.63 272 1.65
 107  0.158  0.382  0.617-  45 0.97 228 1.64
 108  0.080  0.568  0.542- 270 1.64 274 1.64
 109  0.831  0.904  0.536- 233 1.65 232 1.67
 110  0.841  0.375  0.452- 239 1.65 214 1.65
 111  0.541  0.315  0.531- 265 1.61 246 1.63
 112  0.750  0.521  0.595- 272 1.65 267 1.66
 113  0.570  0.192  0.395- 252 1.59 221 1.64
 114  0.819  0.276  0.383-   7 0.97 239 1.67
 115  0.250  0.972  0.508- 242 1.58 227 1.67
 116  0.707  0.798  0.540- 256 1.64 229 1.64
 117  0.936  0.969  0.553- 257 1.65 233 1.65
 118  0.539  0.337  0.399- 252 1.45 260 1.66
 119  0.482  0.009  0.545- 261 1.68 262 1.70
 120  0.851  0.114  0.540- 236 1.65 259 1.66
 121  0.551  0.136  0.486- 235 1.61 221 1.67
 122  0.363  0.206  0.440- 273 1.63 240 1.65
 123  0.025  0.982  0.335-   8 0.97 215 1.65
 124  0.467  0.621  0.678- 253 1.68 277 1.92
 125  0.668  0.945  0.379-   9 0.98 225 1.66
 126  0.089  0.705  0.436- 212 1.65 250 1.66
 127  0.466  0.422  0.552- 276 1.66 265 1.70
 128  0.732  0.720  0.380-  22 0.99 258 1.65
 129  0.467  0.724  0.597- 253 1.62 213 1.63
 130  0.765  0.729  0.476- 256 1.63 258 1.69
 131  0.792  0.140  0.621-   5 0.97 259 1.64
 132  0.006  0.327  0.448- 243 1.66 216 1.68
 133  0.545  0.525  0.528- 276 1.63 234 1.66
 134  0.830  0.518  0.423-  23 0.98 214 1.69
 135  0.249  0.163  0.604-  35 0.98 251 1.62
 136  0.216  0.850  0.471- 227 1.50 245 1.63
 137  0.253  0.578  0.522- 230 1.65 219 1.66
 138  0.076  0.645  0.624-  46 0.97 274 1.63
 139  0.059  0.622  0.354-  24 0.97 212 1.65
 140  0.814  0.999  0.605- 232 1.65 259 1.68
 141  0.551  0.047  0.405-  27 0.99 221 1.66
 142  0.618  0.332  0.604-  15 0.97 246 1.63
 143  0.874  0.023  0.369-  10 0.97 248 1.66
 144  0.108  0.168  0.467- 249 1.62 223 1.65
 145  0.185  0.222  0.530- 249 1.61 251 1.63
 146  0.654  0.724  0.455- 244 1.65 258 1.66
 147  0.450  0.429  0.386-  37 0.98 260 1.66
 148  0.588  0.078  0.571- 262 1.62 235 1.65
 149  0.164  0.613  0.389- 255 1.68 212 1.68
 150  0.281  0.622  0.392- 266 1.65 255 1.67
 151  0.453  0.341  0.470- 265 1.63 260 1.69
 152  0.251  0.178  0.430- 269 1.65 273 1.67
 153  0.086  0.168  0.563- 249 1.64 217 1.64
 154  0.857  0.571  0.595- 237 1.66 267 1.66
 155  0.634  0.299  0.411- 264 1.65 252 1.66
 156  0.616  0.911  0.467- 271 1.29 225 1.67
 157  0.044  0.215  0.389- 216 1.66 223 1.66
 158  0.621  0.215  0.547- 235 1.62 246 1.64
 159  0.146  0.958  0.479- 268 1.65 227 1.66
 160  0.093  0.299  0.512- 243 1.64 249 1.65
 161  0.386  0.123  0.567- 275 1.63 222 1.68
 162  0.080  0.716  0.536- 250 1.63 274 1.63
 163  0.679  0.435  0.430- 226 1.65 264 1.65
 164  0.812  0.749  0.564- 256 1.61 241 1.63
 165  0.717  0.976  0.470- 224 1.65 225 1.66
 166  0.606  0.650  0.556- 234 1.62 218 1.65
 167  0.736  0.313  0.452- 239 1.63 264 1.64
 168  0.990  0.334  0.547- 243 1.64 247 1.67
 169  0.172  0.649  0.570- 230 1.63 274 1.65
 170  0.646  0.346  0.508- 246 1.62 264 1.65
 171  0.837  0.424  0.608-  20 0.97 267 1.65
 172  0.972  0.046  0.417- 248 1.64 215 1.65
 173  0.295  0.215  0.519- 273 1.62 251 1.65
 174  0.262  0.462  0.461- 219 1.66 263 1.71
 175  0.288  0.866  0.566- 242 1.64 254 1.65
 176  0.217  0.705  0.487- 230 1.63 245 1.66
 177  0.160  0.495  0.493- 219 1.63 270 1.65
 178  0.237  0.442  0.557- 219 1.61 228 1.64
 179  0.924  0.472  0.474-  18 0.98 214 1.65
 180  0.883  0.724  0.464-  25 0.99 220 1.65
 181  0.751  0.112  0.445-  11 0.98 224 1.66
 182  0.235  0.949  0.408-  28 1.00 227 1.64
 183  0.262  0.421  0.649-  47 0.97 228 1.64
 184  0.643  0.904  0.593-  16 0.99 229 1.62
 185  0.423  0.808  0.423-  38 0.97 231 1.68
 186  0.931  0.215  0.508-  12 0.97 236 1.65
 187  0.145  0.463  0.332-  42 0.98 238 1.65
 188  0.168  0.323  0.311-  30 0.97 238 1.69
 189  0.386  0.150  0.348-  31 0.98 240 1.66
 190  0.047  0.310  0.633-  17 0.97 247 1.65
 191  0.586  0.276  0.320-  13 0.97 252 1.66
 192  0.260  0.790  0.649-  48 0.97 254 1.63
 193  0.220  0.668  0.310-  39 0.97 255 1.65
 194  0.288  0.411  0.367-  40 0.98 263 1.66
 195  0.378  0.617  0.342-  41 0.97 266 1.67
 196  0.239  0.075  0.358-  32 0.97 269 1.69
 197  0.254  0.215  0.329-  29 0.99 269 1.66
 198  0.514  0.912  0.455-  44 0.99 271 1.60
 199  0.563  0.846  0.534-  33 0.97 271 1.67
 200  0.560  0.676  0.639- 253 1.65 218 1.65
 201  0.492  0.141  0.595- 262 1.65 222 1.65
 202  0.277  0.712  0.568- 254 1.65 230 1.65
 203  0.457  0.867  0.580- 261 1.65 213 1.67
 204  0.779  0.640  0.649- 272 1.64 237 1.66
 205  0.858  0.853  0.622- 241 1.66 232 1.68
 206  0.655  0.760  0.620- 218 1.66 229 1.70
 207  0.021  0.052  0.603- 217 1.69 257 1.69
 208  0.299  0.019  0.592- 275 1.69 242 1.70
 209  0.517  0.991  0.628- 261 1.68 262 1.70
 210  0.471  0.470  0.729- 277 1.71
 211  0.614  0.490  0.781-   2 1.23
 212  0.096  0.626  0.406- 139 1.65 126 1.65  92 1.67 149 1.68 270 3.13
 213  0.423  0.785  0.573-  90 1.62 129 1.63 104 1.65 203 1.67 254 3.04
 214  0.855  0.461  0.468-  75 1.63 110 1.65 179 1.65 134 1.69
 215  0.030  0.010  0.394-  63 1.65 172 1.65  78 1.65 123 1.65 268 3.11 223 3.13
 216  0.028  0.303  0.391-  80 1.64  79 1.65 157 1.66 132 1.68 243 3.11 223 3.11
 217  0.022  0.133  0.572-  66 1.63 153 1.64  76 1.69 207 1.69 257 2.39 249 3.04 247 3.07
 218  0.623  0.679  0.612- 166 1.65 200 1.65 103 1.66 206 1.66 272 2.85 253 3.08
 219  0.227  0.495  0.510- 178 1.61 177 1.63 137 1.66 174 1.66 230 3.10 263 3.14
 220  0.928  0.775  0.496- 102 1.65 180 1.65  86 1.65  91 1.66 233 2.99 241 3.03
 221  0.534  0.130  0.426- 113 1.64  64 1.65 141 1.66 121 1.67 252 3.08 235 3.12
 222  0.431  0.187  0.588-  84 1.64 201 1.65 101 1.68 161 1.68 275 3.12 262 3.14
 223  0.096  0.158  0.407-  63 1.64 144 1.65  89 1.65 157 1.66 216 3.11 215 3.13 269 3.14
 224  0.715  0.064  0.487-  96 1.64 165 1.65  62 1.65 181 1.66 235 3.09 225 3.10 259 3.15
 225  0.678  0.917  0.437-  95 1.53 165 1.66 125 1.66 156 1.67 271 2.83 258 3.06 224 3.10
 226  0.663  0.523  0.430- 105 1.65 163 1.65  93 1.67  99 1.68 234 3.07
 227  0.211  0.932  0.464- 136 1.50 182 1.64 159 1.66 115 1.67 245 3.01 242 3.05 268 3.07
 228  0.226  0.385  0.603-  83 1.63 178 1.64 107 1.64 183 1.64
 229  0.687  0.835  0.594- 184 1.62 116 1.64  98 1.67 206 1.70 256 2.89
 230  0.230  0.660  0.538- 169 1.63 176 1.63 137 1.65 202 1.65 245 3.09 219 3.10 274 3.12
 231  0.382  0.754  0.459- 104 1.65  73 1.65  57 1.66 185 1.68
 232  0.810  0.909  0.595- 140 1.65  98 1.66 109 1.67 205 1.68 241 2.85 233 2.97 259 3.14
 233  0.892  0.931  0.512-  72 1.60  91 1.62 109 1.65 117 1.65 232 2.97 220 2.99 257 3.05 248 3.13

 234  0.589  0.593  0.512-  99 1.58 166 1.62 100 1.63 133 1.66 244 3.01 226 3.07 276 3.13
 235  0.603  0.135  0.525-  62 1.59 121 1.61 158 1.62 148 1.65 262 2.83 224 3.09 246 3.10 221 3.12

 236  0.871  0.171  0.495- 186 1.65 120 1.65  87 1.65  65 1.69 248 3.07 239 3.15
 237  0.848  0.626  0.644-  59 1.63  71 1.64 154 1.66 204 1.66 272 2.92 241 2.96 267 2.97
 238  0.147  0.380  0.357- 187 1.65  80 1.65  70 1.67 188 1.69 263 3.11
 239  0.804  0.299  0.442- 167 1.63 110 1.65 114 1.67  65 1.67 236 3.15
 240  0.412  0.197  0.396-  64 1.65 122 1.65 189 1.66  74 1.67 260 3.07
 241  0.869  0.771  0.596- 164 1.63  71 1.64  86 1.64 205 1.66 232 2.85 237 2.96 220 3.03
 242  0.297  0.952  0.548- 115 1.58 175 1.64  60 1.68 208 1.70 275 2.37 227 3.05
 243  0.036  0.350  0.502- 168 1.64 160 1.64  82 1.65 132 1.66 247 3.10 216 3.11 249 3.14
 244  0.587  0.715  0.436-  68 1.51 100 1.52 146 1.65  88 1.68 234 3.01 271 3.06 258 3.10
 245  0.243  0.772  0.452- 136 1.63 176 1.66  81 1.66  73 1.67 255 2.97 227 3.01 230 3.09
 246  0.607  0.303  0.548- 170 1.62 142 1.63 111 1.63 158 1.64 235 3.10 264 3.15
 247  0.988  0.291  0.602-  97 1.63  66 1.65 190 1.65 168 1.67 217 3.07 243 3.10
 248  0.902  0.045  0.424-  87 1.64 172 1.64  72 1.65 143 1.66 236 3.07 233 3.13
 249  0.118  0.214  0.518- 145 1.61 144 1.62 153 1.64 160 1.65 217 3.04 243 3.14
 250  0.061  0.752  0.483- 162 1.63 102 1.65  94 1.65 126 1.66 268 3.05
 251  0.245  0.224  0.561- 135 1.62  83 1.63 145 1.63 173 1.65 273 3.02
 252  0.574  0.277  0.381- 118 1.45 113 1.59 155 1.66 191 1.66 260 2.87 221 3.08
 253  0.494  0.654  0.625- 129 1.62 200 1.65 124 1.68  85 1.69 277 2.82 218 3.08
 254  0.296  0.788  0.597- 192 1.63  90 1.65 202 1.65 175 1.65 213 3.04
 255  0.221  0.663  0.372- 193 1.65 150 1.67  81 1.67 149 1.68 245 2.97
 256  0.753  0.731  0.536- 164 1.61 130 1.63 106 1.63 116 1.64 229 2.89 258 2.90 272 3.06
 257  0.999  0.009  0.550-  61 1.63 117 1.65  76 1.68 207 1.69 217 2.39 233 3.05
 258  0.716  0.756  0.434-  95 1.65 128 1.65 146 1.66 130 1.69 256 2.90 225 3.06 244 3.10
 259  0.801  0.079  0.577- 131 1.64  96 1.64 120 1.66 140 1.68 232 3.14 224 3.15
 260  0.469  0.348  0.409- 147 1.66 118 1.66  74 1.67 151 1.69 252 2.87 240 3.07
 261  0.463  0.955  0.593-  69 1.65 203 1.65 209 1.68 119 1.68 262 2.35 275 2.74
 262  0.522  0.060  0.585- 148 1.62 201 1.65 119 1.70 209 1.70 261 2.35 235 2.83 222 3.14
 263  0.257  0.390  0.421-  67 1.65  70 1.66 194 1.66 174 1.71 238 3.11 219 3.14
 264  0.671  0.349  0.450- 167 1.64 155 1.65 163 1.65 170 1.65 246 3.15
 265  0.473  0.335  0.528- 111 1.61 151 1.63 101 1.67 127 1.70
 266  0.350  0.609  0.399- 150 1.65 195 1.67  58 1.67  57 1.68
 267  0.817  0.500  0.579-  75 1.62 171 1.65 154 1.66 112 1.66 272 2.90 237 2.97
 268  0.082  0.918  0.481-  94 1.50  78 1.64 159 1.65  61 1.66 250 3.05 227 3.07 215 3.11
 269  0.225  0.164  0.374-  89 1.65 152 1.65 197 1.66 196 1.69 273 3.12 223 3.14
 270  0.091  0.513  0.495- 108 1.64  82 1.64 177 1.65  92 1.66 274 3.10 212 3.13
 271  0.571  0.872  0.475- 156 1.29 198 1.60  68 1.66 199 1.67 225 2.83 244 3.06
 272  0.731  0.606  0.610- 103 1.64 204 1.64 106 1.65 112 1.65 218 2.85 267 2.90 237 2.92 256 3.06

 273  0.300  0.229  0.459- 173 1.62 122 1.63  67 1.66 152 1.67 251 3.02 269 3.12
 274  0.102  0.645  0.568- 138 1.63 162 1.63 108 1.64 169 1.65 270 3.10 230 3.12
 275  0.367  0.038  0.576- 161 1.63  69 1.66 208 1.69  60 1.69 242 2.37 261 2.74 222 3.12
 276  0.503  0.495  0.571- 133 1.63 127 1.66  77 1.69  85 1.70 277 2.87 234 3.13
 277  0.487  0.518  0.676- 210 1.71 124 1.92  77 1.92  85 2.56 253 2.82 276 2.87

  LATTYP: Found a simple orthorhombic cell.
 ALAT       =    18.1212369514
 B/A-ratio  =     1.2919258579
 C/A-ratio  =     1.4835282260
  
  Lattice vectors:
  
 A1 = (   0.0000000000, -18.1212369514,   0.0000000000)
 A2 = ( -23.4112945954,   0.0000000000,   0.0000000000)
 A3 = (   0.0000000000,   0.0000000000, -26.8833665073)


Analysis of symmetry for initial positions (statically):
=====================================================================
 Subroutine PRICEL returns:
 Original cell was already a primitive cell.
 

 Routine SETGRP: Setting up the symmetry group for a 
 simple orthorhombic supercell.


 Subroutine GETGRP returns: Found  1 space group operations
 (whereof  1 operations were pure point group operations)
 out of a pool of  8 trial point group operations.


The static configuration has the point symmetry C_1 .


Analysis of symmetry for dynamics (positions and initial velocities):
=====================================================================
 Subroutine PRICEL returns:
 Original cell was already a primitive cell.
 

 Routine SETGRP: Setting up the symmetry group for a 
 simple orthorhombic supercell.


 Subroutine GETGRP returns: Found  1 space group operations
 (whereof  1 operations were pure point group operations)
 out of a pool of  8 trial point group operations.


The dynamic configuration has the point symmetry C_1 .


Analysis of constrained symmetry for selective dynamics:
=====================================================================
 Subroutine PRICEL returns:
 Original cell was already a primitive cell.
 

 Routine SETGRP: Setting up the symmetry group for a 
 simple orthorhombic supercell.


 Subroutine GETGRP returns: Found  1 space group operations
 (whereof  1 operations were pure point group operations)
 out of a pool of  8 trial point group operations.


The constrained configuration has the point symmetry C_1 .


 Subroutine INISYM returns: Found  1 space group operations
 (whereof  1 operations are pure point group operations),
 and found     1 'primitive' translations



 KPOINTS: KPOINTS created by Atomic Simulation Env

Automatic generation of k-mesh.
Space group operators:
 irot       det(A)        alpha          n_x          n_y          n_z        tau_x        tau_y        tau_z
    1     1.000000     0.000000     1.000000     0.000000     0.000000     0.000000     0.000000     0.000000
 
 Subroutine IBZKPT returns following result:
 ===========================================
 
 Found      5 irreducible k-points:
 
 Following reciprocal coordinates:
            Coordinates               Weight
  0.000000  0.000000  0.000000      1.000000
  0.333333  0.000000  0.000000      2.000000
  0.000000  0.333333  0.000000      2.000000
  0.333333  0.333333  0.000000      2.000000
 -0.333333  0.333333  0.000000      2.000000
 
 Following cartesian coordinates:
            Coordinates               Weight
  0.000000  0.000000  0.000000      1.000000
  0.014238  0.000000  0.000000      2.000000
  0.000000  0.018395  0.000000      2.000000
  0.014238  0.018395  0.000000      2.000000
 -0.014238  0.018395  0.000000      2.000000
 


--------------------------------------------------------------------------------------------------------




 Dimension of arrays:
   k-points           NKPTS =      5   k-points in BZ     NKDIM =      5   number of bands    NBANDS=    776
   number of dos      NEDOS =    301   number of ions     NIONS =    277
   non local maximal  LDIM  =      6   non local SUM 2l+1 LMDIM =     18
   total plane-waves  NPLWV = ******
   max r-space proj   IRMAX =   2748   max aug-charges    IRDMAX=   9808
   dimension x,y,z NGX =   128 NGY =  100 NGZ =  150
   dimension x,y,z NGXF=   256 NGYF=  200 NGZF=  300
   support grid    NGXF=   256 NGYF=  200 NGZF=  300
   ions per type =               4  52 155  65   1
   NGX,Y,Z   is equivalent  to a cutoff of   9.09,  9.17,  9.28 a.u.
   NGXF,Y,Z  is equivalent  to a cutoff of  18.18, 18.35, 18.55 a.u.

 SYSTEM =  unknown system                          
 POSCAR =  C  H  O  Si W                           

 Startparameter for this run:
   NWRITE =      2    write-flag & timer
   PREC   = normal    normal or accurate (medium, high low for compatibility)
   ISTART =      0    job   : 0-new  1-cont  2-samecut
   ICHARG =      2    charge: 1-file 2-atom 10-const
   ISPIN  =      1    spin polarized calculation?
   LNONCOLLINEAR =      F non collinear calculations
   LSORBIT =      F    spin-orbit coupling
   INIWAV =      1    electr: 0-lowe 1-rand  2-diag
   LASPH  =      T    aspherical Exc in radial PAW
   METAGGA=      F    non-selfconsistent MetaGGA calc.

 Electronic Relaxation 1
   ENCUT  =  500.0 eV  36.75 Ry    6.06 a.u.  42.68 33.04 49.01*2*pi/ulx,y,z
   ENINI  =  500.0     initial cutoff
   ENAUG  =  644.9 eV  augmentation charge cutoff
   NELM   =     60;   NELMIN=  2; NELMDL=  0     # of ELM steps 
   EDIFF  = 0.1E-03   stopping-criterion for ELM
   LREAL  =      T    real-space projection
   NLSPLINE    = F    spline interpolate recip. space projectors
   LCOMPAT=      F    compatible to vasp.4.4
   GGA_COMPAT  = T    GGA compatible to vasp.4.4-vasp.4.6
   LMAXPAW     = -100 max onsite density
   LMAXMIX     =    2 max onsite mixed and CHGCAR
   VOSKOWN=      0    Vosko Wilk Nusair interpolation
   ROPT   =   -0.00050  -0.00050  -0.00050  -0.00050
   ROPT   =   -0.00050
 Ionic relaxation
   EDIFFG = -.5E-01   stopping-criterion for IOM
   NSW    =    150    number of steps for IOM
   NBLOCK =      1;   KBLOCK =    150    inner block; outer block 
   IBRION =      1    ionic relax: 0-MD 1-quasi-New 2-CG
   NFREE  =      0    steps in history (QN), initial steepest desc. (CG)
   ISIF   =      0    stress and relaxation
   IWAVPR =     11    prediction:  0-non 1-charg 2-wave 3-comb
   ISYM   =      2    0-nonsym 1-usesym 2-fastsym
   LCORR  =      T    Harris-Foulkes like correction to forces

   POTIM  = 0.5000    time-step for ionic-motion
   TEIN   =    0.0    initial temperature
   TEBEG  =    0.0;   TEEND  =   0.0 temperature during run
   SMASS  =  -3.00    Nose mass-parameter (am)
   estimated Nose-frequenzy (Omega)   =  0.10E-29 period in steps =****** mass=  -0.125E-25a.u.
   SCALEE = 1.0000    scale energy and forces
   NPACO  =    256;   APACO  = 16.0  distance and # of slots for P.C.
   PSTRESS=    0.0 pullay stress

  Mass of Ions in am
   POMASS =  12.01  1.00 16.00 28.09183.85
  Ionic Valenz
   ZVAL   =   4.00  1.00  6.00  4.00  6.00
  Atomic Wigner-Seitz radii
   RWIGS  =  -1.00 -1.00 -1.00 -1.00 -1.00
  virtual crystal weights 
   VCA    =   1.00  1.00  1.00  1.00  1.00
   NELECT =    1264.0000    total number of electrons
   NUPDOWN=      -1.0000    fix difference up-down

 DOS related values:
   EMIN   =  10.00;   EMAX   =-10.00  energy-range for DOS
   EFERMI =   0.00
   ISMEAR =     0;   SIGMA  =   0.20  broadening in eV -4-tet -1-fermi 0-gaus

 Electronic relaxation 2 (details)
   IALGO  =     68    algorithm
   LDIAG  =      T    sub-space diagonalisation (order eigenvalues)
   LSUBROT=      F    optimize rotation matrix (better conditioning)
   TURBO    =      0    0=normal 1=particle mesh
   IRESTART =      0    0=no restart 2=restart with 2 vectors
   NREBOOT  =      0    no. of reboots
   NMIN     =      0    reboot dimension
   EREF     =   0.00    reference energy to select bands
   IMIX   =      4    mixing-type and parameters
     AMIX     =   0.40;   BMIX     =  1.00
     AMIX_MAG =   1.60;   BMIX_MAG =  1.00
     AMIN     =   0.10
     WC   =   100.;   INIMIX=   1;  MIXPRE=   1;  MAXMIX= -45

 Intra band minimization:
   WEIMIN = 0.0010     energy-eigenvalue tresh-hold
   EBREAK =  0.32E-07  absolut break condition
   DEPER  =   0.30     relativ break condition  

   TIME   =   0.40     timestep for ELM

  volume/ion in A,a.u.               =      41.17       277.85
  Fermi-wavevector in a.u.,A,eV,Ry     =   0.786366  1.486017  8.413461  0.618372
  Thomas-Fermi vector in A             =   1.890890

 Write flags
   LWAVE        =      F    write WAVECAR
   LDOWNSAMPLE  =      F    k-point downsampling of WAVECAR
   LCHARG       =      F    write CHGCAR
   LVTOT        =      F    write LOCPOT, total local potential
   LVHAR        =      F    write LOCPOT, Hartree potential only
   LELF         =      F    write electronic localiz. function (ELF)
   LORBIT       =      0    0 simple, 1 ext, 2 COOP (PROOUT), +10 PAW based schemes


 Dipole corrections
   LMONO  =      F    monopole corrections only (constant potential shift)
   LDIPOL =      T    correct potential (dipole corrections)
   IDIPOL =      3    1-x, 2-y, 3-z, 4-all directions 
   EPSILON=  1.0000000 bulk dielectric constant

 Exchange correlation treatment:
   GGA     =    RP    GGA type
   LEXCH   =     9    internal setting for exchange type
   VOSKOWN=      0    Vosko Wilk Nusair interpolation
   LHFCALC =     F    Hartree Fock is set to
   LHFONE  =     F    Hartree Fock one center treatment
   AEXX    =    0.0000 exact exchange contribution

 Linear response parameters
   LEPSILON=     F    determine dielectric tensor
   LRPA    =     F    only Hartree local field effects (RPA)
   LNABLA  =     F    use nabla operator in PAW spheres
   LVEL    =     F    velocity operator in full k-point grid
   LINTERFAST=   F  fast interpolation
   KINTER  =     0    interpolate to denser k-point grid
   CSHIFT  =0.1000    complex shift for real part using Kramers Kronig
   OMEGAMAX=  -1.0    maximum frequency
   DEG_THRESHOLD= 0.2000000E-02 threshold for treating states as degnerate
   RTIME   =   -0.100 relaxation time in fs
  (WPLASMAI=    0.000 imaginary part of plasma frequency in eV, 0.658/RTIME)
   DFIELD  = 0.0000000 0.0000000 0.0000000 field for delta impulse in time

 Orbital magnetization related:
   ORBITALMAG=     F  switch on orbital magnetization
   LCHIMAG   =     F  perturbation theory with respect to B field
   DQ        =  0.001000  dq finite difference perturbation B field
   LLRAUG    =     F  two centre corrections for induced B field



--------------------------------------------------------------------------------------------------------


 quasi-Newton-method for relaxation of ions
   using selective dynamics as specified on POSCAR
 charge density and potential will be updated during run
 non-spin polarized calculation
 RMM-DIIS sequential band-by-band and
  variant of blocked Davidson during initial phase
 perform sub-space diagonalisation
    before iterative eigenvector-optimisation
 modified Broyden-mixing scheme, WC =      100.0
 initial mixing is a Kerker type mixing with AMIX =  0.4000 and BMIX =      1.0000
 Hartree-type preconditioning will be used
 using additional bands          144
 real space projection scheme for non local part
 use partial core corrections
 calculate Harris-corrections to forces   (improved forces if not selfconsistent)
 use gradient corrections 
 use of overlap-Matrix (Vanderbilt PP)
 Gauss-broadening in eV      SIGMA  =   0.20


--------------------------------------------------------------------------------------------------------


  energy-cutoff  :      500.00
  volume of cell :    11405.04
      direct lattice vectors                 reciprocal lattice vectors
    23.411294595  0.000000000  0.000000000     0.042714426  0.000000000  0.000000000
     0.000000000 18.121236951  0.000000000     0.000000000  0.055183871  0.000000000
     0.000000000  0.000000000 26.883366507     0.000000000  0.000000000  0.037197722

  length of vectors
    23.411294595 18.121236951 26.883366507     0.042714426  0.055183871  0.037197722



 k-points in units of 2pi/SCALE and weight: KPOINTS created by Atomic Simulation Env
   0.00000000  0.00000000  0.00000000       0.111
   0.01423814  0.00000000  0.00000000       0.222
   0.00000000  0.01839462  0.00000000       0.222
   0.01423814  0.01839462  0.00000000       0.222
  -0.01423814  0.01839462  0.00000000       0.222

 k-points in reciprocal lattice and weights: KPOINTS created by Atomic Simulation Env
   0.00000000  0.00000000  0.00000000       0.111
   0.33333333  0.00000000  0.00000000       0.222
   0.00000000  0.33333333  0.00000000       0.222
   0.33333333  0.33333333  0.00000000       0.222
  -0.33333333  0.33333333  0.00000000       0.222

 position of ions in fractional coordinates (direct lattice) 
   0.57038160  0.56652073  0.84459705
   0.57626736  0.49649348  0.81301008
   0.61525525  0.62588254  0.83334965
   0.53264296  0.43607603  0.82354243
   0.77420105  0.12348245  0.65122398
   0.93936598  0.29790981  0.35633493
   0.80627800  0.22651975  0.37345652
   0.98747742  0.96284945  0.32530279
   0.63867097  0.98271370  0.37523120
   0.83347670  0.01424751  0.36899263
   0.76293138  0.16041960  0.45803819
   0.92808833  0.26859740  0.51053786
   0.59643117  0.32350439  0.30592717
   0.90579282  0.35596987  0.61590999
   0.59831635  0.37607019  0.61596959
   0.60639698  0.89065955  0.57710645
   0.04771490  0.35575995  0.65099503
   0.94820881  0.43875507  0.45410146
   0.75907668  0.54955284  0.42248819
   0.81941908  0.41525163  0.64030139
   0.60404032  0.58792368  0.37803474
   0.73137209  0.66517363  0.38346059
   0.85409122  0.56166744  0.41959617
   0.01770285  0.62303900  0.35777830
   0.84129701  0.73159752  0.46794226
   0.88170852  0.60922861  0.72194029
   0.53292862  0.00480561  0.42170307
   0.23603288  0.99939568  0.39320502
   0.22931200  0.25709231  0.31923033
   0.17043936  0.34904708  0.27898292
   0.35448518  0.17482655  0.33077276
   0.23565417  0.06499977  0.32273843
   0.52455669  0.84514186  0.54686442
   0.39604548  0.26197244  0.64797064
   0.25730957  0.11079774  0.59685082
   0.32831928  0.50637731  0.44243467
   0.42189449  0.45797571  0.40569060
   0.41143781  0.81235446  0.38878680
   0.25714066  0.67467093  0.29432688
   0.32467969  0.43771656  0.36925764
   0.41841260  0.60352050  0.33881989
   0.15229593  0.50721450  0.35192946
   0.60620765  0.71722798  0.35239799
   0.48194514  0.88066832  0.44382838
   0.13357672  0.34012504  0.60910130
   0.08818868  0.68407427  0.64629860
   0.25464411  0.40071538  0.68220336
   0.26166841  0.83525848  0.66806352
   0.52658729  0.58782063  0.83908383
   0.57195131  0.54942540  0.88405527
   0.61000936  0.67342610  0.85839635
   0.61151045  0.64512772  0.79470331
   0.65858604  0.60357339  0.83803175
   0.48924204  0.45822936  0.81874526
   0.53876955  0.38974642  0.79789237
   0.53646077  0.41725390  0.86238740
   0.38188004  0.66759595  0.43900002
   0.35975396  0.52327472  0.42038813
   0.87417435  0.58153067  0.69183067
   0.36231359  0.97743831  0.52829510
   0.04585449  0.95085522  0.52860695
   0.64929379  0.09810939  0.48937667
   0.08158445  0.07150627  0.39511073
   0.46483785  0.14880317  0.42059728
   0.81882246  0.23289103  0.48316661
   0.98598299  0.20001040  0.59765808
   0.28770360  0.31841372  0.44851223
   0.56929247  0.79433214  0.44175101
   0.40531739  0.99131005  0.61764475
   0.19045555  0.36920930  0.40527312
   0.87963808  0.70669731  0.63848478
   0.87863432  0.98641778  0.46703846
   0.31398544  0.78017768  0.45792526
   0.43454925  0.28049307  0.37959630
   0.82313073  0.48375550  0.51975965
   0.99662630  0.09097862  0.52073672
   0.52978581  0.46572530  0.62597970
   0.04747471  0.93918861  0.42940526
   0.97597485  0.32243616  0.35125762
   0.08256500  0.35534661  0.37637178
   0.22123396  0.74788514  0.39536010
   0.05183957  0.43834276  0.49910875
   0.25149569  0.30431306  0.58807519
   0.40805966  0.21130695  0.64327857
   0.47783592  0.57827041  0.59014371
   0.92272965  0.76840185  0.55737704
   0.88206558  0.12728419  0.44227833
   0.58551510  0.68657270  0.37613173
   0.15536486  0.17836635  0.37597224
   0.36553369  0.78355075  0.60650605
   0.92393436  0.86428842  0.48317962
   0.07427632  0.55611255  0.44225348
   0.72127733  0.57440740  0.41995768
   0.08842556  0.83604765  0.48299416
   0.71340308  0.84679656  0.43263529
   0.74305032  0.06857887  0.54302516
   0.93065468  0.31874012  0.63069848
   0.74806616  0.87382149  0.61248484
   0.63806026  0.54663485  0.48637871
   0.56951160  0.64894389  0.46724942
   0.43865288  0.26512964  0.55506210
   0.99122840  0.74748448  0.47679564
   0.66717424  0.61472416  0.63402398
   0.41031649  0.76584032  0.51468333
   0.61562837  0.53690630  0.38567099
   0.73016470  0.65243056  0.55691072
   0.15760391  0.38228295  0.61692846
   0.07979374  0.56774831  0.54217025
   0.83082191  0.90359039  0.53557981
   0.84115384  0.37462599  0.45190334
   0.54050084  0.31531094  0.53076571
   0.75026749  0.52079391  0.59504018
   0.57037224  0.19167195  0.39490854
   0.81890239  0.27565342  0.38329286
   0.25038452  0.97249160  0.50791956
   0.70659827  0.79831600  0.54021431
   0.93592195  0.96898030  0.55295486
   0.53867553  0.33702197  0.39855594
   0.48237400  0.00949898  0.54479220
   0.85056737  0.11440685  0.53967778
   0.55084156  0.13565834  0.48623709
   0.36313175  0.20584958  0.43963639
   0.02469863  0.98165475  0.33524376
   0.46739061  0.62108226  0.67822532
   0.66790353  0.94463835  0.37922825
   0.08923165  0.70526711  0.43588102
   0.46574928  0.42200608  0.55150823
   0.73215774  0.71966170  0.37958300
   0.46689892  0.72428851  0.59662781
   0.76548936  0.72856542  0.47629548
   0.79238019  0.14046597  0.62092088
   0.00621292  0.32725432  0.44840298
   0.54465839  0.52521302  0.52752030
   0.82971589  0.51830258  0.42344221
   0.24923969  0.16252254  0.60423493
   0.21647161  0.84994216  0.47053363
   0.25311317  0.57773019  0.52215125
   0.07611014  0.64466715  0.62433695
   0.05901238  0.62158754  0.35417863
   0.81440201  0.99856673  0.60489797
   0.55092922  0.04693834  0.40450275
   0.61795603  0.33205799  0.60441945
   0.87448441  0.02332170  0.36920633
   0.10784961  0.16826368  0.46708233
   0.18465812  0.22238273  0.53035236
   0.65392696  0.72367957  0.45481558
   0.44972609  0.42900933  0.38641325
   0.58786321  0.07757452  0.57083195
   0.16437605  0.61264887  0.38895836
   0.28067810  0.62157838  0.39230630
   0.45319677  0.34143903  0.47032443
   0.25094797  0.17775198  0.42990119
   0.08602904  0.16846953  0.56254614
   0.85700356  0.57132398  0.59501682
   0.63411773  0.29918073  0.41090545
   0.61560530  0.91076751  0.46722346
   0.04432370  0.21453068  0.38899188
   0.62149889  0.21451473  0.54714337
   0.14573803  0.95759549  0.47948708
   0.09301319  0.29932197  0.51219153
   0.38573996  0.12293693  0.56666021
   0.07964011  0.71577508  0.53566149
   0.67942669  0.43462573  0.43001156
   0.81226863  0.74863639  0.56436802
   0.71677686  0.97644928  0.47018456
   0.60638953  0.64967381  0.55584834
   0.73577861  0.31292550  0.45166811
   0.98994166  0.33351798  0.54678014
   0.17204497  0.64907558  0.57037179
   0.64627215  0.34602393  0.50780070
   0.83669157  0.42368825  0.60795110
   0.97151650  0.04648389  0.41695300
   0.29541890  0.21478405  0.51863295
   0.26219586  0.46227374  0.46105570
   0.28821738  0.86646619  0.56574327
   0.21660646  0.70481402  0.48688872
   0.16006176  0.49531073  0.49254493
   0.23725989  0.44191083  0.55680058
   0.92435528  0.47198545  0.47371881
   0.88272648  0.72380096  0.46415352
   0.75105851  0.11207547  0.44522965
   0.23512174  0.94902204  0.40794682
   0.26227046  0.42087346  0.64948563
   0.64324709  0.90375198  0.59254344
   0.42316157  0.80830324  0.42343739
   0.93070966  0.21527914  0.50824515
   0.14548536  0.46277696  0.33227266
   0.16808599  0.32276410  0.31056042
   0.38594345  0.15014789  0.34795342
   0.04724091  0.30975457  0.63252202
   0.58562757  0.27610904  0.32009968
   0.26009055  0.79020569  0.64863403
   0.22031260  0.66764590  0.31036906
   0.28831272  0.41143215  0.36737583
   0.37828912  0.61682748  0.34222079
   0.23931916  0.07542167  0.35811888
   0.25414164  0.21531908  0.32934297
   0.51421123  0.91154247  0.45484168
   0.56339502  0.84589798  0.53411751
   0.56026928  0.67570414  0.63886868
   0.49155594  0.14074718  0.59515892
   0.27713230  0.71208076  0.56806768
   0.45655889  0.86666464  0.58005177
   0.77856999  0.63964598  0.64852714
   0.85810589  0.85285714  0.62207581
   0.65489774  0.76010690  0.61954056
   0.02076171  0.05207319  0.60275459
   0.29851498  0.01924888  0.59247785
   0.51671966  0.99070994  0.62759105
   0.47142984  0.46961884  0.72871466
   0.61368775  0.48975583  0.78119626
   0.09616359  0.62566115  0.40641308
   0.42333568  0.78543922  0.57346652
   0.85470212  0.46069396  0.46783897
   0.03002780  0.00972289  0.39361135
   0.02763851  0.30343112  0.39108141
   0.02230891  0.13340751  0.57201631
   0.62346063  0.67869554  0.61190116
   0.22681615  0.49494598  0.50967713
   0.92800043  0.77480179  0.49625454
   0.53351685  0.12969647  0.42598659
   0.43128009  0.18727109  0.58818641
   0.09639083  0.15841293  0.40698087
   0.71483624  0.06408710  0.48732303
   0.67799766  0.91727831  0.43747644
   0.66303705  0.52326791  0.43015089
   0.21139895  0.93172308  0.46399069
   0.22583307  0.38513780  0.60306697
   0.68709301  0.83485739  0.59355447
   0.23026799  0.66044818  0.53825293
   0.38172742  0.75436858  0.45920930
   0.81037517  0.90878071  0.59485245
   0.89224328  0.93124408  0.51181793
   0.58865221  0.59304066  0.51166256
   0.60302792  0.13486121  0.52507506
   0.87106065  0.17135408  0.49517595
   0.84834374  0.62584504  0.64387233
   0.14667683  0.37955975  0.35687228
   0.80359359  0.29918009  0.44187265
   0.41211440  0.19673569  0.39600320
   0.86899882  0.77077777  0.59646491
   0.29710530  0.95240153  0.54820263
   0.03601304  0.34968836  0.50224551
   0.58749769  0.71473093  0.43556436
   0.24317926  0.77184135  0.45196954
   0.60669953  0.30273458  0.54794165
   0.98773797  0.29064600  0.60190668
   0.90184466  0.04464985  0.42420019
   0.11768432  0.21434446  0.51789245
   0.06108397  0.75227794  0.48263019
   0.24496119  0.22441537  0.56083382
   0.57434611  0.27702612  0.38122611
   0.49406435  0.65358034  0.62467341
   0.29629127  0.78848718  0.59663759
   0.22143913  0.66264069  0.37179454
   0.75316903  0.73117970  0.53579427
   0.99895302  0.00914137  0.55026803
   0.71604286  0.75605900  0.43426040
   0.80089444  0.07933654  0.57669551
   0.46925220  0.34769244  0.40928789
   0.46337709  0.95541177  0.59301330
   0.52218098  0.06000891  0.58519973
   0.25718546  0.38964717  0.42094710
   0.67146365  0.34924296  0.45034791
   0.47345298  0.33533890  0.52834583
   0.35023767  0.60918339  0.39908301
   0.81683472  0.49980857  0.57896725
   0.08214810  0.91810000  0.48050551
   0.22484588  0.16369517  0.37359659
   0.09117116  0.51322584  0.49468762
   0.57050849  0.87158095  0.47473025
   0.73110674  0.60579154  0.60962584
   0.29958043  0.22934259  0.45911077
   0.10177757  0.64474943  0.56781364
   0.36687407  0.03751871  0.57641710
   0.50263799  0.49458566  0.57121203
   0.48741955  0.51823198  0.67603882

 position of ions in cartesian coordinates  (Angst):
  13.35337177 10.26605639 22.70561194
  13.49116483  8.99707606 21.85644794
  14.40392184 11.34176572 22.40324420
  12.46986123  7.90223708 22.13959307
  18.12504896  2.23765480 17.50709281
  21.99177373  5.39849428  9.57948250
  18.87601184  4.10481799 10.03976840
  23.11812475 17.44802302  8.74523415
  14.95211424 17.80798779 10.08747787
  19.51276867  0.25818254  9.91976410
  17.86121129  2.90700166 12.31360861
  21.72774935  4.86731713 13.72497650
  13.96322581  5.86229979  8.22435231
  21.20578259  6.45061434 16.55773388
  14.00736023  6.81485698 16.55933614
  14.19653835 16.13985278 15.51456413
   1.11706766  6.44681041 17.50093790
  22.19879587  7.95078466 12.20777585
  17.77096788  9.95857725 11.35790489
  19.18366141  7.52487311 17.21345681
  14.14136595 10.65390423 10.16284657
  17.12236752 12.05376904 10.30871170
  19.99538116 10.17810885 11.28015755
   0.41444674 11.29023731  9.61828518
  19.69585203 13.25745205 12.57986315
  20.64193780 11.03997606 19.40818532
  12.47654892  0.08708360 11.33679820
   5.52583524 18.11028599 10.57067472
   5.36849071  4.65883060  8.58198589
   3.99020598  6.32516482  7.50000000
   8.29895703  3.16807341  8.89228530
   5.51696914  1.17787632  8.67629559
  12.28055119 15.31501597 14.70155664
   9.27193747  4.74726464 17.41963228
   6.02395008  2.00779215 16.04535929
   7.68637932  9.17618328 11.89413327
   9.87709618  8.29908631 10.90632902
   9.63229176 14.72086759 10.45189795
   6.01999581 12.22587174  7.91249741
   7.60117181  7.93196554  9.92688859
   9.79558066 10.93653802  9.10861924
   3.56544480  9.19135405  9.46104865
  14.19210590 12.99705812  9.47364424
  11.28295956 15.95879926 11.93160111
   3.12720395  6.16348641 16.37469341
   2.06461111 12.39627186 17.37468201
   5.96154821  7.26145831 18.33992303
   6.12599630 15.13591675 17.95979650
  12.32809015 10.65203697 22.55739800
  13.39012060  9.95626790 23.76638178
  14.28110887 12.20331400 23.07658365
  14.31625133 11.69051226 21.36430024
  15.41835187 10.93749641 22.52911455
  11.45378948  8.30368289 22.01062897
  12.61329263  7.06268722 21.45003293
  12.55924115  7.56115684 23.18387667
   8.94030611 12.09766432 11.80179838
   8.42230584  9.48238513 11.30144811
  20.46555326 10.53805513 18.59873735
   8.48223014 17.71239129 14.20235081
   1.07351288 17.23067284 14.21073450
  15.20080815  1.77786358 13.15609244
   1.90999765  1.29578206 10.62190669
  10.88245580  2.69649756 11.30707087
  19.16969372  4.22027351 12.98914499
  23.08313825  3.62443589 16.06706117
   6.73551371  5.77005046 12.05751853
  13.32787377 14.39428092 11.87575437
   9.48900482 17.96376428 16.60437025
   4.45881089  6.69052917 10.89510594
  20.59346626 12.80622950 17.16462046
  20.56996681 17.87511034 12.55556607
   7.35080569 14.13778467 12.31057251
  10.17336054  5.08288130 10.20482654
  19.27055608  8.76624811 13.97288914
  23.33231190  1.64864505 13.99915606
  12.40297179  8.43951851 16.82844178
   1.11144447 17.01925935 11.54385891
  22.84883468  5.84294199  9.44298747
   1.93295345  6.43932019 10.11814055
   5.17937349 13.55260388 10.62861051
   1.21363142  7.94331309 13.41772355
   5.88783972  5.51452900 15.80944082
   9.55320489  3.82914326 17.29349361
  11.18675751 10.47897514 15.86504978
  21.60229571 13.92439195 14.98417129
  20.65029708  2.30654698 11.88993046
  13.70766651 12.44154661 10.11168720
   3.63729262  3.23221884 10.10739962
   8.55761687 14.19890873 16.30492445
  21.63049939 15.66197525 12.98949491
   1.73890472 10.07744737 11.88926245
  16.88603614 10.40897261 11.28987623
   2.07015691 15.15021763 12.98450890
  16.70168960 15.34500118 11.63069310
  17.39576984  1.24273403 14.59834442
  21.78783095  5.77596516 16.95529831
  17.51319730 15.83472625 16.46565450
  14.93781672  9.90569965 13.07549710
  13.33300395 11.75966598 12.56123752
  10.26943181  4.80447704 14.92193777
  23.20594008 13.54534342 12.81787194
  15.61941275 11.13956211 17.04469909
   9.60604032 13.87797386 13.83642048
  14.41265723  9.72940629 10.36813464
  17.09410086 11.82284876 14.97163509
   3.68971160  6.92743989 16.58511402
   1.86807477 10.28830162 14.57536162
  19.45061655 16.37417564 14.39818843
  19.69250027  6.78868636 12.14868300
  12.65382440  5.71382422 14.26876917
  17.56473324  9.43742986 15.99668329
  13.35315258  3.47333289 10.61647095
  19.17156507  4.99518092 10.30420244
   5.86182582 17.62275070 13.65458756
  16.54238034 14.46647343 14.52277920
  21.91114439 17.55912169 14.86528810
  12.61109148  6.10725494 10.71452528
  11.29299974  0.17213329 14.64584837
  19.91288318  2.07319356 14.50835544
  12.89591401  2.45829688 13.07168996
   8.50138434  3.73024903 11.81890631
   0.57822687 17.78879830  9.01248080
  10.94221927 11.25477883 18.23297983
  15.63648624 17.11801543 10.19493214
   2.08902842 12.78031234 11.71794928
  10.90379352  7.64727212 14.82639783
  17.14076060 13.04116019 10.20446890
  10.93070813 13.12500367 16.03936411
  17.92109703 13.20250668 12.80442605
  18.55064606  2.54541720 16.69244369
   0.14545253  5.93025311 12.05458163
  12.75115801  9.51750957 14.18152145
  19.42472316  9.39228392 11.38355200
   5.83502386  2.94510949 16.24386913
   5.06788067 15.40200336 12.64952801
   5.92570710 10.46918566 14.03718354
   1.78183686 11.68216620 16.78427911
   1.38155617 11.26393511  9.52151395
  19.06620528 18.09526436 16.26169383
  12.89796617  0.85058079 10.87439573
  14.46715065  6.01730143 16.24882962
  20.47281222  0.42261802  9.92550906
   2.52489908  3.04914609 12.55674536
   4.32308559  4.02985012 14.25765683
  15.30927672 13.11396894 12.22697399
  10.52866996  7.77417971 10.38808912
  13.76263885  1.40574628 15.34588460
   3.84825618 11.10195538 10.45651017
   6.57103759 11.26376911 10.54651395
  10.60992299  6.18729758 12.64390410
   5.87501689  3.22108571 11.55719116
   2.01405125  3.05287633 15.12313416
  20.06356288 10.35309719 15.99605534
  14.84551708  5.42152481 11.04652184
  14.41211701 16.50423394 12.56053950
   1.03767513  3.88756124 10.45741115
  14.55009358  3.88727218 14.70905573
   3.41191600 17.35281483 12.89022683
   2.17755925  5.42408429 13.76943275
   9.03067188  2.22776930 15.23373415
   1.86447814 12.97072982 14.40038406
  15.90625830  7.87595577 11.56015827
  19.01626017 13.56621747 15.17211238
  16.78067433 17.69446881 12.64014391
  14.19636383 11.77289297 14.94307472
  17.22552969  5.67059718 12.14235921
  23.17581590  6.04375827 14.69929080
   4.02779549 11.76205232 15.33351382
  15.13006771  6.27038159 13.65139239
  19.58803282  7.67775513 16.34377234
  22.74445908  0.84234564 11.20910044
   6.91613890  3.89215266 13.94259972
   6.13834442  8.37697194 12.39472924
   6.74754200 15.70143921 15.20908370
   5.07103753 12.77210183 13.08920785
   3.74725300  8.97564302 13.24126574
   5.55456113  8.00797082 14.96867404
  21.64035387  8.55296012 12.73515651
  20.66576972 13.11616869 12.47800922
  17.58325212  2.03094610 11.96927179
   5.50450437 17.19745323 10.96698378
   6.14009097  7.62674775 17.46036029
  15.05924707 16.37710374 15.92956238
   9.90676020 14.64745455 11.38342242
  21.78911800  3.90112435 13.66334053
   3.40600072  8.38609099  8.93260776
   3.93511055  5.84888480  8.34890949
   9.03543583  2.72086553  9.35415932
   1.10597080  5.61313602 17.00432124
  13.71029948  5.00343734  8.60535697
   6.08905651 14.31950447 17.43746633
   5.15780329 12.09856952  8.34376522
   6.74977397  7.45565944  9.87629901
   8.85623799 11.17767694  9.20004704
   5.60277126  1.36673400  9.62744117
   5.94978482  3.90184800  8.85384768
  12.03835064 16.51827710 12.22767567
  13.18980683 15.32871776 14.35887667
  13.11662921 12.24459489 17.17494083
  11.50796087  2.55051305 15.99987536
   6.48802589 12.90378413 15.27157164
  10.68863465 15.70503538 15.59374437
  18.22733149 11.59117641 17.43459271
  20.08936989 15.45482638 16.72349207
  15.33200382 13.77407718 16.65533589
   0.48605842  0.94363067 16.20407257
   6.98862214  0.34881355 15.92779917
  12.09707622 17.95288953 16.87176025
  11.03678283  8.51007435 19.59030328
  14.36722460  8.87498146 21.00118547
   2.25131402 11.33775394 10.92575188
   9.91083640 14.23313029 15.41671068
  20.00968323  8.34834448 12.57708649
   0.70298966  0.17619075 10.58159830
   0.64705336  5.49854726 10.51358498
   0.52228043  2.41750912 15.37772411
  14.59602045 12.29880274 16.44996320
   5.31005976  8.96903333 13.70183696
  21.72569154 14.04036675 13.34099278
  12.49032011  2.35026055 11.45195358
  10.09682526  3.39358374 15.81243096
   2.25663421  2.87063816 10.94101594
  16.73524181  1.16133758 13.10088356
  15.87280296 16.62221764 11.76083937
  15.52255570  9.48226171 11.56390395
   4.94912317 16.88397470 12.47363180
   5.28704461  6.97917328 16.21247051
  16.08573691 15.12864850 15.95674246
   5.39087177 11.96813793 14.47005082
   8.93673318 13.67009182 12.34509184
  18.97193193 16.46823057 15.99163644
  20.88857021 16.87529462 13.75938897
  13.78111029 10.74663030 13.75521220
  14.11766426  2.44385189 14.11578519
  20.39265742  3.10514790 13.31199648
  19.86082528 11.34108634 17.30945578
   3.43389440  6.87809221  9.59392828
  18.81316637  5.42151338 11.87902451
   9.64813169  3.56509410 10.64589911
  20.34438727 13.96744667 16.03498470
   6.95561979 17.25869376 14.73753228
   0.84311184  6.33678569 13.50205012
  13.75408151 12.95180853 11.70943634
   5.69314130 13.98671990 12.15046292
  14.20362147  5.48592498 14.73051626
  23.12422451  5.26686512 16.18127780
  21.11335113  0.80911046 11.40392910
   2.75514232  3.88418680 13.92269254
   1.43005474 13.63220684 12.97472440
   5.73485855  4.06668418 15.07710119
  13.44618605  5.02005593 10.24864117
  11.56668600 11.84368423 16.79332417
   6.93656225 14.28836300 16.03962700
   5.18417673 12.00786901  9.99508876
  17.63266198 13.24988055 14.40395372
  23.38678345  0.16565300 14.79305722
  16.76349042 13.70072432 11.67438144
  18.74997571  1.43767629 15.50351665
  10.98580158  6.30061715 11.00303640
  10.84825766 17.31324313 15.94219389
  12.22493272  1.08743575 15.73213888
   6.02104451  7.06088874 11.31647527
  15.71983331  6.32871442 12.10686792
  11.08414711  6.07675565 14.20371454
   8.19951736 11.03915656 10.72869482
  19.12315816  9.05714955 15.56458884
   1.92319326 16.63710772 12.91760565
   5.26393324  2.96635896 10.04353415
   2.13443494  9.30028712 13.29886860
  13.35634244 15.79412486 12.76234739
  17.11615531 10.97769195 16.38879502
   7.01356570  4.15597136 12.34244318
   2.38274461 11.68365712 15.26474227
   8.58899685  0.67988538 15.49603205
  11.76740608  8.96250400 15.35610224
  11.41112258  9.39100458 18.17419928



--------------------------------------------------------------------------------------------------------


 k-point  1 :   0.0000 0.0000 0.0000  plane waves:  289505
 k-point  2 :   0.3333 0.0000 0.0000  plane waves:  289422
 k-point  3 :   0.0000 0.3333 0.0000  plane waves:  289550
 k-point  4 :   0.3333 0.3333 0.0000  plane waves:  289551
 k-point  5 :  -0.3333 0.3333 0.0000  plane waves:  289551

 maximum and minimum number of plane-waves per node :     72451    72309

 maximum number of plane-waves:    289551
 maximum index in each direction: 
   IXMAX=   43   IYMAX=   33   IZMAX=   49
   IXMIN=  -43   IYMIN=  -33   IZMIN=  -49


 real space projection operators:
  total allocation   :      13820.12 KBytes
  max/ min on nodes  :       3457.74       3453.29


 parallel 3D FFT for wavefunctions:
    minimum data exchange during FFTs selected (reduces bandwidth)
 parallel 3D FFT for charge:
    minimum data exchange during FFTs selected (reduces bandwidth)


 total amount of memory used by VASP MPI-rank0   703336. kBytes
=======================================================================

   base      :      30000. kBytes
   nonlr-proj:      16985. kBytes
   fftplans  :      30982. kBytes
   grid      :      57864. kBytes
   one-center:       1088. kBytes
   wavefun   :     566417. kBytes

     INWAV:  cpu time    0.0001: real time    0.0000
 Broyden mixing: mesh for mixing (old mesh)
   NGX = 85   NGY = 67   NGZ = 99
  (NGX  =256   NGY  =200   NGZ  =300)
  gives a total of 563805 points

 initial charge density was supplied:
 charge density of overlapping atoms calculated
 number of electron    1264.0000000 magnetization 
 keeping initial charge density in first step


--------------------------------------------------------------------------------------------------------


 Maximum index for non-local projection operator          671
 Maximum index for augmentation-charges          506 (set IRDMAX)


--------------------------------------------------------------------------------------------------------


 First call to EWALD:  gamma=   0.079
 Maximum number of real-space cells 3x 3x 2
 Maximum number of reciprocal cells 3x 2x 3

    FEWALD:  cpu time    0.0254: real time    0.0255


--------------------------------------- Iteration      1(   1)  ---------------------------------------


    POTLOK:  cpu time    0.2774: real time    0.2841
    SETDIJ:  cpu time    0.5787: real time    0.5801
     EDDAV:  cpu time   81.4355: real time   81.7148
       DOS:  cpu time    0.0018: real time    0.0018
    --------------------------------------------
      LOOP:  cpu time   82.2935: real time   82.5808

 eigenvalue-minimisations  :  8696
 total energy-change (2. order) : 0.1303437E+05  (-0.5022130E+05)
 number of electron    1264.0000000 magnetization 
 augmentation part     1264.0000000 magnetization 

 DIPCOR: dipole corrections for dipol
 direction  3 min pos    77,
 dipolmoment           0.000000      0.000000      6.475532 electrons x Angstroem
 Tr[quadrupol]    -96111.662639

 energy correction for charged system         0.000000 eV
 dipol+quadrupol energy correction           -0.340932 eV
 added-field ion interaction        883.458132 eV  (added to PSCEN)


 Free energy of the ion-electron system (eV)
  ---------------------------------------------------
  alpha Z        PSCENC =      1378.18465103
  Ewald energy   TEWEN  =    304386.83054751
  -Hartree energ DENC   =   -366984.26190208
  -exchange      EXHF   =         0.00000000
  -V(xc)+E(xc)   XCENC  =      3805.98374646
  PAW double counting   =     60302.38778424   -59321.72876092
  entropy T*S    EENTRO =        -1.63335175
  eigenvalues    EBANDS =     -5670.93371315
  atomic energy  EATOM  =     75139.53829012
  Solvation  Ediel_sol  =         0.00000000
  ---------------------------------------------------
  free energy    TOTEN  =     13034.36729146 eV

  energy without entropy =    13036.00064322  energy(sigma->0) =    13035.18396734


--------------------------------------------------------------------------------------------------------




--------------------------------------- Iteration      1(   2)  ---------------------------------------


     EDDAV:  cpu time   97.0320: real time   97.3687
       DOS:  cpu time    0.0017: real time    0.0017
    --------------------------------------------
      LOOP:  cpu time   97.0337: real time   97.3704

 eigenvalue-minimisations  : 10776
 total energy-change (2. order) :-0.1243845E+05  (-0.1204489E+05)
 number of electron    1264.0000000 magnetization 
 augmentation part     1264.0000000 magnetization 

 DIPCOR: dipole corrections for dipol
 direction  3 min pos    77,
 dipolmoment           0.000000      0.000000      6.475532 electrons x Angstroem
 Tr[quadrupol]    -96111.662639

 energy correction for charged system         0.000000 eV
 dipol+quadrupol energy correction           -0.340932 eV
 added-field ion interaction        883.458132 eV  (added to PSCEN)


 Free energy of the ion-electron system (eV)
  ---------------------------------------------------
  alpha Z        PSCENC =      1378.18465103
  Ewald energy   TEWEN  =    304386.83054751
  -Hartree energ DENC   =   -366984.26190208
  -exchange      EXHF   =         0.00000000
  -V(xc)+E(xc)   XCENC  =      3805.98374646
  PAW double counting   =     60302.38778424   -59321.72876092
  entropy T*S    EENTRO =        -0.00368275
  eigenvalues    EBANDS =    -18111.01054811
  atomic energy  EATOM  =     75139.53829012
  Solvation  Ediel_sol  =         0.00000000
  ---------------------------------------------------
  free energy    TOTEN  =       595.92012550 eV

  energy without entropy =      595.92380825  energy(sigma->0) =      595.92196688


--------------------------------------------------------------------------------------------------------




--------------------------------------- Iteration      1(   3)  ---------------------------------------


     EDDAV:  cpu time   84.2703: real time   84.5633
       DOS:  cpu time    0.0018: real time    0.0018
    --------------------------------------------
      LOOP:  cpu time   84.2721: real time   84.5651

 eigenvalue-minimisations  :  9056
 total energy-change (2. order) :-0.2616345E+04  (-0.2605021E+04)
 number of electron    1264.0000000 magnetization 
 augmentation part     1264.0000000 magnetization 

 DIPCOR: dipole corrections for dipol
 direction  3 min pos    77,
 dipolmoment           0.000000      0.000000      6.475532 electrons x Angstroem
 Tr[quadrupol]    -96111.662639

 energy correction for charged system         0.000000 eV
 dipol+quadrupol energy correction           -0.340932 eV
 added-field ion interaction        883.458132 eV  (added to PSCEN)


 Free energy of the ion-electron system (eV)
  ---------------------------------------------------
  alpha Z        PSCENC =      1378.18465103
  Ewald energy   TEWEN  =    304386.83054751
  -Hartree energ DENC   =   -366984.26190208
  -exchange      EXHF   =         0.00000000
  -V(xc)+E(xc)   XCENC  =      3805.98374646
  PAW double counting   =     60302.38778424   -59321.72876092
  entropy T*S    EENTRO =        -0.22635047
  eigenvalues    EBANDS =    -20727.13270116
[...]
      7.35081     14.13778     12.31057        -0.269457     -0.135851     -0.157874
     10.17336      5.08288     10.20483         0.358094      0.083799      0.481965
     19.27056      8.76625     13.97289         0.007188      0.009867      0.004797
     23.33231      1.64865     13.99916        -0.001092     -0.000762      0.016991
     12.40297      8.43952     16.82844        -0.023673     -0.004618      0.022884
      1.11144     17.01926     11.54386        -0.055389      0.442867     -0.267250
     22.84883      5.84294      9.44299         0.191644     -0.176743      0.333959
      1.93295      6.43932     10.11814         0.384598     -0.094010     -0.053798
      5.17937     13.55260     10.62861         0.430143     -0.136177      0.412056
      1.21363      7.94331     13.41772         0.455976      0.017593      0.152069
      5.88784      5.51453     15.80944         0.003805      0.001603      0.001100
      9.55320      3.82914     17.29349        -0.016720      0.013892      0.012674
     11.18676     10.47898     15.86505        -0.015821      0.003071     -0.003095
     21.60230     13.92439     14.98417         0.006820      0.000215      0.000941
     20.65030      2.30655     11.88993        -0.070715     -0.086012      0.424055
     13.70767     12.44155     10.11169        -0.231783      0.154397      0.113267
      3.63729      3.23222     10.10740         0.019484     -0.077256      0.180161
      8.55762     14.19891     16.30492        -0.009939      0.004045      0.003143
     21.63050     15.66198     12.98949         0.182579     -1.533341      0.139187
      1.73890     10.07745     11.88926         0.512887      0.283358      0.021330
     16.88604     10.40897     11.28988        -0.263292     -0.574297     -0.029718
      2.07016     15.15022     12.98451        -0.103172     -6.451475      0.283673
     16.70169     15.34500     11.63069         1.811770     -3.880096     -0.237201
     17.39577      1.24273     14.59834         0.003273     -0.006894      0.013925
     21.78783      5.77597     16.95530        -0.008965      0.003289      0.004350
     17.51320     15.83473     16.46565         0.007148     -0.014855      0.004623
     14.93782      9.90570     13.07550         1.878174     -1.041310     -1.013629
     13.33300     11.75967     12.56124        -3.507101     -2.729446      1.825890
     10.26943      4.80448     14.92194        -0.000030     -0.000546     -0.004102
     23.20594     13.54534     12.81787         0.449642      0.308085      0.249661
     15.61941     11.13956     17.04470         0.009811     -0.009500      0.000353
      9.60604     13.87797     13.83642        -0.006202     -0.006578      0.005490
     14.41266      9.72941     10.36813         0.262598     -0.103035      0.400675
     17.09410     11.82285     14.97164         0.018507     -0.008118      0.009307
      3.68971      6.92744     16.58511         0.003575      0.000732      0.001067
      1.86807     10.28830     14.57536        -0.007342      0.000459      0.002018
     19.45062     16.37418     14.39819        -0.004121      0.003141      0.019427
     19.69250      6.78869     12.14868        -0.094407      0.222695      0.177474
     12.65382      5.71382     14.26877         0.003011      0.015689      0.004162
     17.56473      9.43743     15.99668         0.000593      0.002227      0.010925
     13.35315      3.47333     10.61647        -1.385629     -1.815668      0.557331
     19.17157      4.99518     10.30420        -0.006183     -0.049318      0.701817
      5.86183     17.62275     13.65459        -0.846191      0.210821     -0.974431
     16.54238     14.46647     14.52278        -0.008787     -0.003327      0.004710
     21.91114     17.55912     14.86529         0.005099      0.002264      0.006981
     12.61109      6.10725     10.71453        -7.922421      6.618717      3.168768
     11.29300      0.17213     14.64585        -0.003315      0.010216      0.017055
     19.91288      2.07319     14.50836        -0.002362     -0.004804      0.002489
     12.89591      2.45830     13.07169        -2.045290      0.656157     -1.038594
      8.50138      3.73025     11.81891        -0.046111      0.208696     -0.006193
      0.57823     17.78880      9.01248        -0.211812      0.148164      0.372194
     10.94222     11.25478     18.23298        -0.005262      0.003142      0.020400
     15.63649     17.11802     10.19493        -0.599979      0.127390      0.644863
      2.08903     12.78031     11.71795        -0.050791     -0.141927      0.021402
     10.90379      7.64727     14.82640         0.015151     -0.001865     -0.001992
     17.14076     13.04116     10.20447        -0.083431      0.301657      0.491681
     10.93071     13.12500     16.03936        -0.014681     -0.013402      0.013539
     17.92110     13.20251     12.80443        -0.337964      0.207122     -1.114738
     18.55065      2.54542     16.69244         0.001346      0.000948     -0.003904
      0.14545      5.93025     12.05458         0.259258     -0.009400     -0.129817
     12.75116      9.51751     14.18152         0.013926      0.008419      0.023171
     19.42472      9.39228     11.38355         0.327338     -0.319703      0.382475
      5.83502      2.94511     16.24387         0.003510      0.009929      0.005429
      5.06788     15.40200     12.64953         0.588171     -6.724774      0.344399
      5.92571     10.46919     14.03718         0.000420      0.002757      0.000585
      1.78184     11.68217     16.78428        -0.008740     -0.001640      0.005699
      1.38156     11.26394      9.52151         0.193420      0.162731      0.390190
     19.06621     18.09526     16.26169         0.002414     -0.007822      0.002767
     12.89797      0.85058     10.87440        -0.243735      0.434109      0.223969
     14.46715      6.01730     16.24883         0.006454     -0.002134      0.004877
     20.47281      0.42262      9.92551        -0.013760      0.022341      0.317126
      2.52490      3.04915     12.55675        -0.113921     -0.092292     -0.833332
      4.32309      4.02985     14.25766        -0.005755      0.005240     -0.000340
     15.30928     13.11397     12.22697         2.615086      0.171232     -0.580609
     10.52867      7.77418     10.38809         0.198923     -0.731046      0.550448
     13.76264      1.40575     15.34588        -0.013081      0.011411     -0.003407
      3.84826     11.10196     10.45651         0.045399      0.723930      0.133997
      6.57104     11.26377     10.54651         0.133887      0.304259      0.024171
     10.60992      6.18730     12.64390         0.291271     -0.004888     -1.103084
      5.87502      3.22109     11.55719         0.328150      0.268366     -0.374324
      2.01405      3.05288     15.12313         0.005064      0.006323     -0.006592
     20.06356     10.35310     15.99606         0.014169     -0.023224      0.023375
     14.84552      5.42152     11.04652         1.411788      0.645258      0.769120
     14.41212     16.50423     12.56054        23.488933     14.650523     -4.549117
      1.03768      3.88756     10.45741         0.458549      0.129656      0.216588
     14.55009      3.88727     14.70906        -0.007709      0.006952     -0.001070
      3.41192     17.35281     12.89023         0.000240     -0.152446     -0.325730
      2.17756      5.42408     13.76943        -0.002873      0.005308     -0.007749
      9.03067      2.22777     15.23373        -0.008490     -0.005317      0.013680
      1.86448     12.97073     14.40038         0.004455     -0.002338      0.002255
     15.90626      7.87596     11.56016        -0.294165      0.213729      0.431887
     19.01626     13.56622     15.17211         0.007309     -0.000323     -0.011754
     16.78067     17.69447     12.64014        -0.717051      0.363767     -0.230073
     14.19636     11.77289     14.94307         0.029979      0.007761     -0.000606
     17.22553      5.67060     12.14236         0.212249      0.098730     -0.073299
     23.17582      6.04376     14.69929         0.009555      0.001947      0.007961
      4.02780     11.76205     15.33351        -0.010398      0.004734     -0.001620
     15.13007      6.27038     13.65139         0.372507      0.318685     -0.774773
     19.58803      7.67776     16.34377         0.004473     -0.005737     -0.002056
     22.74446      0.84235     11.20910        -0.369546     -0.354341     -0.319427
      6.91614      3.89215     13.94260         0.001353      0.000738     -0.002087
      6.13834      8.37697     12.39473         0.011231     -0.841625     -0.683881
      6.74754     15.70144     15.20908        -0.011596      0.002133      0.012529
      5.07104     12.77210     13.08921         0.301019      0.592997     -0.403736
      3.74725      8.97564     13.24127        -0.370530      0.089797      0.159906
      5.55456      8.00797     14.96867         0.000139     -0.001257     -0.007924
     21.64035      8.55296     12.73516        -0.249852     -0.107999     -0.081258
     20.66577     13.11617     12.47801         0.358106      0.257551      0.362380
     17.58325      2.03095     11.96927        -0.129681     -0.217776      0.395533
      5.50450     17.19745     10.96698        -0.345429      0.383554      0.382093
      6.14009      7.62675     17.46036         0.003037      0.001104      0.001661
     15.05925     16.37710     15.92956        -0.000794     -0.011996      0.006769
      9.90676     14.64745     11.38342        -0.555723     -0.414540      0.220988
     21.78912      3.90112     13.66334        -0.744589     -0.030359     -0.186041
      3.40600      8.38609      8.93261         0.123849     -0.304501      0.288796
      3.93511      5.84888      8.34891        -0.162716      0.541139      0.356976
      9.03544      2.72087      9.35416         0.257960      0.576419      0.326031
      1.10597      5.61314     17.00432        -0.004151      0.005928      0.010815
     13.71030      5.00344      8.60536        -0.222203      0.163685      0.224212
      6.08906     14.31950     17.43747        -0.007516      0.004770      0.021105
      5.15780     12.09857      8.34377         0.056624     -0.123741      0.526025
      6.74977      7.45566      9.87630        -0.024237      0.015617      0.707626
      8.85624     11.17768      9.20005        -0.110291      0.011830      0.699478
      5.60277      1.36673      9.62744        -0.042189      0.777507      0.133876
      5.94978      3.90185      8.85385        -0.376959     -0.027063      0.384955
     12.03835     16.51828     12.22768        -2.235610      1.023593     -0.664234
     13.18981     15.32872     14.35888         0.001098      0.001868      0.001377
     13.11663     12.24459     17.17494         0.010813     -0.020633     -0.005073
     11.50796      2.55051     15.99988        -0.002893      0.003620      0.019640
      6.48803     12.90378     15.27157        -0.013824      0.004264      0.011661
     10.68863     15.70504     15.59374         0.000544     -0.004038      0.006526
     18.22733     11.59118     17.43459         0.008177     -0.007272      0.020316
     20.08937     15.45483     16.72349         0.000423     -0.011531      0.009603
     15.33200     13.77408     16.65534        -0.016371      0.001529      0.006790
      0.48606      0.94363     16.20407         0.006616      0.000595      0.012761
      6.98862      0.34881     15.92780        -0.008689     -0.008330      0.011461
     12.09708     17.95289     16.87176         0.006288      0.008506      0.007146
     11.03678      8.51007     19.59030        -0.043281     -0.002252      0.015285
     14.36722      8.87498     21.00119         0.022995     -0.007203     -0.024724
      2.25131     11.33775     10.92575        -0.060947     -0.116859      0.098789
      9.91084     14.23313     15.41671        -0.005732     -0.001105      0.006627
     20.00968      8.34834     12.57709         0.100814     -0.237749     -0.324545
      0.70299      0.17619     10.58160         0.060689     -0.140757      0.366054
      0.64705      5.49855     10.51358         0.022156      0.034566      0.127038
      0.52228      2.41751     15.37772         0.003329      0.000220      0.009884
     14.59602     12.29880     16.44996        -0.001193     -0.001799      0.001120
      5.31006      8.96903     13.70184         0.000397     -0.001749      0.002127
     21.72569     14.04037     13.34099         0.195906      0.231118     -0.679808
     12.49032      2.35026     11.45195         0.187926     -0.076004      0.507651
     10.09683      3.39358     15.81243        -0.009701      0.007040      0.015457
      2.25663      2.87064     10.94102         0.057096     -0.112596      0.128307
     16.73524      1.16134     13.10088         0.088164     -0.038438     -0.263049
     15.87280     16.62222     11.76084        -0.435954      4.553850     -0.171790
     15.52256      9.48226     11.56390         0.156329      0.000512      0.191786
      4.94912     16.88397     12.47363        -0.753673      6.160085     -0.357634
      5.28704      6.97917     16.21247         0.005206      0.003052      0.002412
     16.08574     15.12865     15.95674        -0.000312     -0.007220      0.012272
      5.39087     11.96814     14.47005        -0.007000      0.000686      0.002210
      8.93673     13.67009     12.34509        -0.415999      0.009693     -0.297172
     18.97193     16.46823     15.99164         0.006407     -0.013361      0.000784
     20.88857     16.87529     13.75939         0.007583      0.003130     -0.001712
     13.78111     10.74663     13.75521         0.007649      0.007234      0.004485
     14.11766      2.44385     14.11579        -0.000882      0.004900     -0.007401
     20.39266      3.10515     13.31200        -0.132414      0.083106     -0.452871
     19.86083     11.34109     17.30946         0.010042     -0.009616      0.019184
      3.43389      6.87809      9.59393        -0.119484     -0.114845      0.089148
     18.81317      5.42151     11.87902        -0.249396      0.100293      0.148067
      9.64813      3.56509     10.64590        -0.157178     -0.316629      0.265106
     20.34439     13.96745     16.03498         0.009592     -0.006958      0.004756
      6.95562     17.25869     14.73753        -0.000751      0.009180      0.005009
      0.84311      6.33679     13.50205         0.278605      0.152037     -0.376736
     13.75408     12.95181     11.70944         3.945181     -0.771022     -2.505056
      5.69314     13.98672     12.15046         0.094909     -0.592912      0.044784
     14.20362      5.48592     14.73052        -0.000543      0.006676      0.005393
     23.12422      5.26687     16.18128         0.005151     -0.004779      0.006338
     21.11335      0.80911     11.40393         0.027548      0.053210      0.155463
      2.75514      3.88419     13.92269         0.003386     -0.003847     -0.000585
      1.43005     13.63221     12.97472        -0.139784     -0.601742     -0.150113
      5.73486      4.06668     15.07710         0.000724      0.006388      0.002189
     13.44619      5.02006     10.24864         8.376843     -5.363098     -3.530519
     11.56669     11.84368     16.79332        -0.012907     -0.006343      0.004231
      6.93656     14.28836     16.03963        -0.010406      0.008847      0.007424
      5.18418     12.00787      9.99509         0.049740     -0.067427      0.058340
     17.63266     13.24988     14.40395         0.005163      0.008507      0.004861
     23.38678      0.16565     14.79306         0.005869      0.001612      0.011244
     16.76349     13.70072     11.67438        -0.619690     -1.316757      0.393724
     18.74998      1.43768     15.50352         0.003228     -0.004950     -0.001276
     10.98580      6.30062     11.00304        -1.154895      0.502249      0.488216
     10.84826     17.31324     15.94219         0.002211     -0.003510      0.010254
     12.22493      1.08744     15.73214        -0.013773      0.010741      0.006867
      6.02104      7.06089     11.31648         0.014488     -0.134156     -0.060547
     15.71983      6.32871     12.10687        -0.120134     -0.498296     -0.747982
     11.08415      6.07676     14.20371        -0.008239      0.003518      0.006518
      8.19952     11.03916     10.72869        -0.172518     -0.089757     -0.029233
     19.12316      9.05715     15.56459         0.010857     -0.006530      0.004273
      1.92319     16.63711     12.91761        -0.411853      6.413343     -0.480717
      5.26393      2.96636     10.04353        -0.101716     -0.028116      0.111438
      2.13443      9.30029     13.29887         0.045967     -0.100475     -0.201212
     13.35634     15.79412     12.76235       -22.257300    -15.872281      4.699710
     17.11616     10.97769     16.38880         0.013702      0.000835      0.011172
      7.01357      4.15597     12.34244        -0.202969      0.038776     -0.766682
      2.38274     11.68366     15.26474        -0.009233      0.000649      0.002837
      8.58900      0.67989     15.49603        -0.002585      0.007675      0.013150
     11.76741      8.96250     15.35610        -0.004155      0.002677      0.018345
     11.41112      9.39100     18.17420        -0.026396     -0.010045      0.037197
 -----------------------------------------------------------------------------------
    total drift:                                0.229597     -0.019236     -0.247294


--------------------------------------------------------------------------------------------------------



  FREE ENERGIE OF THE ION-ELECTRON SYSTEM (eV)
  ---------------------------------------------------
  free  energy   TOTEN  =     -1892.46090806 eV

  energy  without entropy=    -1892.46075910  energy(sigma->0) =    -1892.46083358



--------------------------------------------------------------------------------------------------------


    POTLOK:  cpu time    0.8360: real time    0.8381


--------------------------------------------------------------------------------------------------------


 stress matrix after NEB project (eV)
    -32.63254      0.01829      0.05416
      0.01829    -33.49701     -0.10689
      0.05416     -0.10689    -25.07891
  FORCES: max atom, RMS     0.046704    0.011820
  FORCE total and by dimension    0.196723    0.043281
  Stress total and by dimension   53.065179   33.497007
 Quasi-Newton relaxation of ions (Broydens 2nd method)
  g(Force)  = 0.187E-02   g(Stress)= 0.000E+00

 Reset! Starting new Quasi-Newton update for ions 


--------------------------------------------------------------------------------------------------------


  
 reached required accuracy - stopping structural energy minimisation
     LOOP+:  cpu time 1265.9286: real time 1270.4852
    4ORBIT:  cpu time    0.0000: real time    0.0000

 total amount of memory used by VASP MPI-rank0   703336. kBytes
=======================================================================

   base      :      30000. kBytes
   nonlr-proj:      16985. kBytes
   fftplans  :      30982. kBytes
   grid      :      57864. kBytes
   one-center:       1088. kBytes
   wavefun   :     566417. kBytes

  
  
 General timing and accounting informations for this job:
 ========================================================
  
                  Total CPU time used (sec):     1370.073
                            User time (sec):     1366.680
                          System time (sec):        3.393
                         Elapsed time (sec):     1380.743
  
                   Maximum memory used (kb):      999800.
                   Average memory used (kb):           0.
  
                          Minor page faults:      3465439
                          Major page faults:          168
                 Voluntary context switches:         5584
