ESCALE ; pCOOP file generated by LOBSTER. Energy is shifted such that the Fermi level lies at 0 eV.
         2          1        301  -1.22640e+01   2.78618e+00  -2.23054e+00 
Average
No.1:O198->W264(1.7068211574462899)
-10.03344   0.00000   0.13063   0.00000   0.13063
 -9.98328   0.00001   0.13063   0.00001   0.13063
 -9.93311   0.00001   0.13063   0.00001   0.13063
 -9.88294   0.00001   0.13063   0.00001   0.13063
 -9.83278   0.00001   0.13063   0.00001   0.13063
 -9.78261   0.00001   0.13063   0.00001   0.13063
 -9.73244   0.00000   0.13063   0.00000   0.13063
 -9.68227  -0.00001   0.13063  -0.00001   0.13063
 -9.63211  -0.00001   0.13063  -0.00001   0.13063
 -9.58194  -0.00002   0.13063  -0.00002   0.13063
 -9.53177  -0.00002   0.13062  -0.00002   0.13062
 -9.48161  -0.00001   0.13062  -0.00001   0.13062
 -9.43144   0.00000   0.13062   0.00000   0.13062
 -9.38127   0.00003   0.13062   0.00003   0.13062
 -9.33110   0.00007   0.13063   0.00007   0.13063
 -9.28094   0.00013   0.13063   0.00013   0.13063
 -9.23077   0.00020   0.13065   0.00020   0.13065
 -9.18060   0.00030   0.13066   0.00030   0.13066
 -9.13043   0.00040   0.13068   0.00040   0.13068
 -9.08027   0.00049   0.13070   0.00049   0.13070
 -9.03010   0.00056   0.13073   0.00056   0.13073
 -8.97993   0.00057   0.13076   0.00057   0.13076
 -8.92977   0.00053   0.13079   0.00053   0.13079
 -8.87960   0.00044   0.13081   0.00044   0.13081
 -8.82943   0.00033   0.13083   0.00033   0.13083
 -8.77926   0.00022   0.13084   0.00022   0.13084
 -8.72910   0.00011   0.13084   0.00011   0.13084
 -8.67893   0.00001   0.13084   0.00001   0.13084
 -8.62876  -0.00013   0.13084  -0.00013   0.13084
 -8.57860  -0.00032   0.13082  -0.00032   0.13082
 -8.52843  -0.00059   0.13079  -0.00059   0.13079
 -8.47826  -0.00094   0.13075  -0.00094   0.13075
 -8.42809  -0.00132   0.13068  -0.00132   0.13068
 -8.37793  -0.00165   0.13060  -0.00165   0.13060
 -8.32776  -0.00187   0.13050  -0.00187   0.13050
 -8.27759  -0.00191   0.13041  -0.00191   0.13041
 -8.22742  -0.00178   0.13032  -0.00178   0.13032
 -8.17726  -0.00150   0.13024  -0.00150   0.13024
 -8.12709  -0.00115   0.13018  -0.00115   0.13018
 -8.07692  -0.00080   0.13014  -0.00080   0.13014
 -8.02676  -0.00050   0.13012  -0.00050   0.13012
 -7.97659  -0.00026   0.13011  -0.00026   0.13011
 -7.92642  -0.00010   0.13010  -0.00010   0.13010
 -7.87625   0.00001   0.13010   0.00001   0.13010
 -7.82609   0.00008   0.13010   0.00008   0.13010
 -7.77592   0.00011   0.13011   0.00011   0.13011
 -7.72575   0.00014   0.13012   0.00014   0.13012
 -7.67559   0.00017   0.13013   0.00017   0.13013
 -7.62542   0.00027   0.13014   0.00027   0.13014
 -7.57525   0.00049   0.13016   0.00049   0.13016
 -7.52508   0.00090   0.13021   0.00090   0.13021
 -7.47492   0.00154   0.13029   0.00154   0.13029
 -7.42475   0.00234   0.13040   0.00234   0.13040
 -7.37458   0.00310   0.13056   0.00310   0.13056
 -7.32441   0.00356   0.13074   0.00356   0.13074
 -7.27425   0.00348   0.13091   0.00348   0.13091
 -7.22408   0.00285   0.13106   0.00285   0.13106
 -7.17391   0.00189   0.13115   0.00189   0.13115
 -7.12375   0.00100   0.13120   0.00100   0.13120
 -7.07358   0.00055   0.13123   0.00055   0.13123
 -7.02341   0.00072   0.13126   0.00072   0.13126
 -6.97324   0.00148   0.13134   0.00148   0.13134
 -6.92308   0.00263   0.13147   0.00263   0.13147
 -6.87291   0.00398   0.13167   0.00398   0.13167
 -6.82274   0.00548   0.13195   0.00548   0.13195
 -6.77258   0.00753   0.13232   0.00753   0.13232
 -6.72241   0.01107   0.13288   0.01107   0.13288
 -6.67224   0.01768   0.13377   0.01768   0.13377
 -6.62207   0.02903   0.13522   0.02903   0.13522
 -6.57191   0.04608   0.13753   0.04608   0.13753
 -6.52174   0.06788   0.14094   0.06788   0.14094
 -6.47157   0.09088   0.14550   0.09088   0.14550
 -6.42140   0.10961   0.15100   0.10961   0.15100
 -6.37124   0.11865   0.15695   0.11865   0.15695
 -6.32107   0.11531   0.16273   0.11531   0.16273
 -6.27090   0.10100   0.16780   0.10100   0.16780
 -6.22074   0.08062   0.17185   0.08062   0.17185
 -6.17057   0.06010   0.17486   0.06010   0.17486
 -6.12040   0.04393   0.17706   0.04393   0.17706
 -6.07023   0.03391   0.17877   0.03391   0.17877
 -6.02007   0.02947   0.18024   0.02947   0.18024
 -5.96990   0.02867   0.18168   0.02867   0.18168
 -5.91973   0.02930   0.18315   0.02930   0.18315
 -5.86957   0.02967   0.18464   0.02967   0.18464
 -5.81940   0.02892   0.18609   0.02892   0.18609
 -5.76923   0.02705   0.18745   0.02705   0.18745
 -5.71906   0.02462   0.18868   0.02462   0.18868
 -5.66890   0.02233   0.18980   0.02233   0.18980
 -5.61873   0.02062   0.19084   0.02062   0.19084
 -5.56856   0.01959   0.19182   0.01959   0.19182
 -5.51839   0.01910   0.19278   0.01910   0.19278
 -5.46823   0.01896   0.19373   0.01896   0.19373
 -5.41806   0.01920   0.19469   0.01920   0.19469
 -5.36789   0.02008   0.19570   0.02008   0.19570
 -5.31773   0.02216   0.19681   0.02216   0.19681
 -5.26756   0.02634   0.19813   0.02634   0.19813
 -5.21739   0.03393   0.19984   0.03393   0.19984
 -5.16722   0.04689   0.20219   0.04689   0.20219
 -5.11706   0.06774   0.20559   0.06774   0.20559
 -5.06689   0.09903   0.21056   0.09903   0.21056
 -5.01672   0.14213   0.21769   0.14213   0.21769
 -4.96656   0.19554   0.22750   0.19554   0.22750
 -4.91639   0.25354   0.24022   0.25354   0.24022
 -4.86622   0.30632   0.25558   0.30632   0.25558
 -4.81605   0.34232   0.27276   0.34232   0.27276
 -4.76589   0.35242   0.29044   0.35242   0.29044
 -4.71572   0.33389   0.30719   0.33389   0.30719
 -4.66555   0.29197   0.32183   0.29197   0.32183
 -4.61538   0.23779   0.33376   0.23779   0.33376
 -4.56522   0.18379   0.34298   0.18379   0.34298
 -4.51505   0.13912   0.34996   0.13912   0.34996
 -4.46488   0.10752   0.35536   0.10752   0.35536
 -4.41472   0.08811   0.35978   0.08811   0.35978
 -4.36455   0.07783   0.36368   0.07783   0.36368
 -4.31438   0.07392   0.36739   0.07392   0.36739
 -4.26421   0.07505   0.37115   0.07505   0.37115
 -4.21405   0.08111   0.37522   0.08111   0.37522
 -4.16388   0.09188   0.37983   0.09188   0.37983
 -4.11371   0.10571   0.38514   0.10571   0.38514
 -4.06355   0.11899   0.39111   0.11899   0.39111
 -4.01338   0.12697   0.39748   0.12697   0.39748
 -3.96321   0.12580   0.40379   0.12580   0.40379
 -3.91304   0.11451   0.40953   0.11451   0.40953
 -3.86288   0.09556   0.41433   0.09556   0.41433
 -3.81271   0.07346   0.41801   0.07346   0.41801
 -3.76254   0.05267   0.42065   0.05267   0.42065
 -3.71237   0.03583   0.42245   0.03583   0.42245
 -3.66221   0.02358   0.42363   0.02358   0.42363
 -3.61204   0.01517   0.42439   0.01517   0.42439
 -3.56187   0.00954   0.42487   0.00954   0.42487
 -3.51171   0.00578   0.42516   0.00578   0.42516
 -3.46154   0.00331   0.42533   0.00331   0.42533
 -3.41137   0.00176   0.42542   0.00176   0.42542
 -3.36120   0.00085   0.42546   0.00085   0.42546
 -3.31104   0.00036   0.42548   0.00036   0.42548
 -3.26087   0.00012   0.42548   0.00012   0.42548
 -3.21070   0.00002   0.42549   0.00002   0.42549
 -3.16054  -0.00002   0.42548  -0.00002   0.42548
 -3.11037  -0.00003   0.42548  -0.00003   0.42548
 -3.06020  -0.00003   0.42548  -0.00003   0.42548
 -3.01003  -0.00004   0.42548  -0.00004   0.42548
 -2.95987  -0.00004   0.42548  -0.00004   0.42548
 -2.90970  -0.00004   0.42548  -0.00004   0.42548
 -2.85953  -0.00003   0.42547  -0.00003   0.42547
 -2.80936  -0.00003   0.42547  -0.00003   0.42547
 -2.75920  -0.00002   0.42547  -0.00002   0.42547
 -2.70903  -0.00002   0.42547  -0.00002   0.42547
 -2.65886  -0.00001   0.42547  -0.00001   0.42547
 -2.60870  -0.00000   0.42547  -0.00000   0.42547
 -2.55853  -0.00000   0.42547  -0.00000   0.42547
 -2.50836  -0.00000   0.42547  -0.00000   0.42547
 -2.45819  -0.00000   0.42547  -0.00000   0.42547
 -2.40803  -0.00000   0.42547  -0.00000   0.42547
 -2.35786  -0.00000   0.42547  -0.00000   0.42547
 -2.30769  -0.00000   0.42547  -0.00000   0.42547
 -2.25753  -0.00000   0.42547  -0.00000   0.42547
 -2.20736  -0.00000   0.42547  -0.00000   0.42547
 -2.15719  -0.00000   0.42547  -0.00000   0.42547
 -2.10702  -0.00000   0.42547  -0.00000   0.42547
 -2.05686  -0.00000   0.42547  -0.00000   0.42547
 -2.00669  -0.00000   0.42547  -0.00000   0.42547
 -1.95652  -0.00000   0.42547  -0.00000   0.42547
 -1.90635  -0.00000   0.42547  -0.00000   0.42547
 -1.85619  -0.00000   0.42547  -0.00000   0.42547
 -1.80602  -0.00000   0.42547  -0.00000   0.42547
 -1.75585  -0.00000   0.42547  -0.00000   0.42547
 -1.70569  -0.00000   0.42547  -0.00000   0.42547
 -1.65552  -0.00000   0.42547  -0.00000   0.42547
 -1.60535  -0.00000   0.42547  -0.00000   0.42547
 -1.55518  -0.00000   0.42547  -0.00000   0.42547
 -1.50502  -0.00000   0.42547  -0.00000   0.42547
 -1.45485  -0.00000   0.42547  -0.00000   0.42547
 -1.40468  -0.00000   0.42547  -0.00000   0.42547
 -1.35452  -0.00000   0.42547  -0.00000   0.42547
 -1.30435  -0.00000   0.42547  -0.00000   0.42547
 -1.25418  -0.00000   0.42547  -0.00000   0.42547
 -1.20401  -0.00000   0.42547  -0.00000   0.42547
 -1.15385  -0.00002   0.42547  -0.00002   0.42547
 -1.10368  -0.00006   0.42547  -0.00006   0.42547
 -1.05351  -0.00021   0.42545  -0.00021   0.42545
 -1.00334  -0.00060   0.42543  -0.00060   0.42543
 -0.95318  -0.00153   0.42535  -0.00153   0.42535
 -0.90301  -0.00345   0.42518  -0.00345   0.42518
 -0.85284  -0.00689   0.42483  -0.00689   0.42483
 -0.80268  -0.01215   0.42422  -0.01215   0.42422
 -0.75251  -0.01890   0.42327  -0.01890   0.42327
 -0.70234  -0.02597   0.42197  -0.02597   0.42197
 -0.65217  -0.03150   0.42039  -0.03150   0.42039
 -0.60201  -0.03374   0.41870  -0.03374   0.41870
 -0.55184  -0.03190   0.41710  -0.03190   0.41710
 -0.50167  -0.02663   0.41576  -0.02663   0.41576
 -0.45151  -0.01963   0.41477  -0.01963   0.41477
 -0.40134  -0.01278   0.41413  -0.01278   0.41413
 -0.35117  -0.00734   0.41377  -0.00734   0.41377
 -0.30100  -0.00372   0.41358  -0.00372   0.41358
 -0.25084  -0.00167   0.41349  -0.00167   0.41349
 -0.20067  -0.00066   0.41346  -0.00066   0.41346
 -0.15050  -0.00023   0.41345  -0.00023   0.41345
 -0.10033  -0.00007   0.41345  -0.00007   0.41345
 -0.05017  -0.00002   0.41345  -0.00002   0.41345
 -0.00000  -0.00001   0.41345  -0.00001   0.41345
  0.05017  -0.00000   0.41344  -0.00000   0.41344
  0.10033  -0.00001   0.41344  -0.00001   0.41344
  0.15050  -0.00004   0.41344  -0.00004   0.41344
  0.20067  -0.00012   0.41344  -0.00012   0.41344
  0.25084  -0.00034   0.41342  -0.00034   0.41342
  0.30100  -0.00085   0.41338  -0.00085   0.41338
  0.35117  -0.00190   0.41328  -0.00190   0.41328
  0.40134  -0.00374   0.41309  -0.00374   0.41309
  0.45151  -0.00651   0.41277  -0.00651   0.41277
  0.50167  -0.01000   0.41227  -0.01000   0.41227
  0.55184  -0.01358   0.41158  -0.01358   0.41158
  0.60201  -0.01628   0.41077  -0.01628   0.41077
  0.65217  -0.01731   0.40990  -0.01731   0.40990
  0.70234  -0.01651   0.40907  -0.01651   0.40907
  0.75251  -0.01485   0.40833  -0.01485   0.40833
  0.80268  -0.01470   0.40759  -0.01470   0.40759
  0.85284  -0.02026   0.40657  -0.02026   0.40657
  0.90301  -0.03800   0.40467  -0.03800   0.40467
  0.95318  -0.07641   0.40083  -0.07641   0.40083
  1.00334  -0.14345   0.39364  -0.14345   0.39364
  1.05351  -0.24104   0.38155  -0.24104   0.38155
  1.10368  -0.35875   0.36355  -0.35875   0.36355
  1.15385  -0.47177   0.33988  -0.47177   0.33988
  1.20401  -0.54786   0.31240  -0.54786   0.31240
  1.25418  -0.56175   0.28421  -0.56175   0.28421
  1.30435  -0.50856   0.25870  -0.50856   0.25870
  1.35452  -0.40650   0.23831  -0.40650   0.23831
  1.40468  -0.28689   0.22392  -0.28689   0.22392
  1.45485  -0.17878   0.21495  -0.17878   0.21495
  1.50502  -0.09842   0.21001  -0.09842   0.21001
  1.55518  -0.04799   0.20760  -0.04799   0.20760
  1.60535  -0.02102   0.20655  -0.02102   0.20655
  1.65552  -0.00892   0.20610  -0.00892   0.20610
  1.70569  -0.00482   0.20586  -0.00482   0.20586
  1.75585  -0.00456   0.20563  -0.00456   0.20563
  1.80602  -0.00595   0.20533  -0.00595   0.20533
  1.85619  -0.00783   0.20494  -0.00783   0.20494
  1.90635  -0.00945   0.20446  -0.00945   0.20446
  1.95652  -0.01042   0.20394  -0.01042   0.20394
  2.00669  -0.01069   0.20341  -0.01069   0.20341
  2.05686  -0.01062   0.20287  -0.01062   0.20287
  2.10702  -0.01068   0.20234  -0.01068   0.20234
  2.15719  -0.01122   0.20177  -0.01122   0.20177
  2.20736  -0.01218   0.20116  -0.01218   0.20116
  2.25753  -0.01321   0.20050  -0.01321   0.20050
  2.30769  -0.01395   0.19980  -0.01395   0.19980
  2.35786  -0.01429   0.19908  -0.01429   0.19908
  2.40803  -0.01449   0.19836  -0.01449   0.19836
  2.45819  -0.01515   0.19760  -0.01515   0.19760
  2.50836  -0.01732   0.19673  -0.01732   0.19673
  2.55853  -0.02310   0.19557  -0.02310   0.19557
  2.60870  -0.03669   0.19373  -0.03669   0.19373
  2.65886  -0.06537   0.19045  -0.06537   0.19045
  2.70903  -0.11907   0.18448  -0.11907   0.18448
  2.75920  -0.20713   0.17408  -0.20713   0.17408
  2.80936  -0.33180   0.15744  -0.33180   0.15744
  2.85953  -0.48121   0.13330  -0.48121   0.13330
  2.90970  -0.62716   0.10184  -0.62716   0.10184
  2.95987  -0.73237   0.06509  -0.73237   0.06509
  3.01003  -0.76597   0.02667  -0.76597   0.02667
  3.06020  -0.71865  -0.00939  -0.71865  -0.00939
  3.11037  -0.60761  -0.03987  -0.60761  -0.03987
  3.16054  -0.46764  -0.06333  -0.46764  -0.06333
  3.21070  -0.33500  -0.08013  -0.33500  -0.08013
  3.26087  -0.23417  -0.09188  -0.23417  -0.09188
  3.31104  -0.17345  -0.10058  -0.17345  -0.10058
  3.36120  -0.14828  -0.10802  -0.14828  -0.10802
  3.41137  -0.14743  -0.11542  -0.14743  -0.11542
  3.46154  -0.15840  -0.12336  -0.15840  -0.12336
  3.51171  -0.17102  -0.13194  -0.17102  -0.13194
  3.56187  -0.17953  -0.14095  -0.17953  -0.14095
  3.61204  -0.18299  -0.15013  -0.18299  -0.15013
  3.66221  -0.18403  -0.15936  -0.18403  -0.15936
  3.71237  -0.18646  -0.16872  -0.18646  -0.16872
  3.76254  -0.19304  -0.17840  -0.19304  -0.17840
  3.81271  -0.20455  -0.18866  -0.20455  -0.18866
  3.86288  -0.22030  -0.19971  -0.22030  -0.19971
  3.91304  -0.23908  -0.21171  -0.23908  -0.21171
  3.96321  -0.25972  -0.22474  -0.25972  -0.22474
  4.01338  -0.28110  -0.23884  -0.28110  -0.23884
  4.06355  -0.30207  -0.25399  -0.30207  -0.25399
  4.11371  -0.32161  -0.27013  -0.32161  -0.27013
  4.16388  -0.33920  -0.28715  -0.33920  -0.28715
  4.21405  -0.35493  -0.30495  -0.35493  -0.30495
  4.26421  -0.36925  -0.32348  -0.36925  -0.32348
  4.31438  -0.38257  -0.34267  -0.38257  -0.34267
  4.36455  -0.39493  -0.36248  -0.39493  -0.36248
  4.41472  -0.40610  -0.38285  -0.40610  -0.38285
  4.46488  -0.41571  -0.40371  -0.41571  -0.40371
  4.51505  -0.42312  -0.42494  -0.42312  -0.42494
  4.56522  -0.42717  -0.44637  -0.42717  -0.44637
  4.61538  -0.42627  -0.46775  -0.42627  -0.46775
  4.66555  -0.41902  -0.48877  -0.41902  -0.48877
  4.71572  -0.40510  -0.50909  -0.40510  -0.50909
  4.76589  -0.38587  -0.52845  -0.38587  -0.52845
  4.81605  -0.36407  -0.54672  -0.36407  -0.54672
  4.86622  -0.34287  -0.56392  -0.34287  -0.56392
  4.91639  -0.32482  -0.58021  -0.32482  -0.58021
  4.96656  -0.31099  -0.59581  -0.31099  -0.59581
  5.01672  -0.30080  -0.61090  -0.30080  -0.61090