ESCALE ; pCOHP file generated by LOBSTER. Energy is shifted such that the Fermi level lies at 0 eV.
        76          1        801  -2.37681e+01   1.62820e+01  -3.74304e+00 
Average
No.1:O204->W271(1.925951578103841)
No.1:O204[2s]->W271[6s](1.925951578103841)
No.1:O204[2s]->W271[5d_xy](1.925951578103841)
No.1:O204[2s]->W271[5d_yz](1.925951578103841)
No.1:O204[2s]->W271[5d_z^2](1.925951578103841)
No.1:O204[2s]->W271[5d_xz](1.925951578103841)
No.1:O204[2s]->W271[5d_x^2-y^2](1.925951578103841)
No.1:O204[2p_y]->W271[6s](1.925951578103841)
No.1:O204[2p_y]->W271[5d_xy](1.925951578103841)
No.1:O204[2p_y]->W271[5d_yz](1.925951578103841)
No.1:O204[2p_y]->W271[5d_z^2](1.925951578103841)
No.1:O204[2p_y]->W271[5d_xz](1.925951578103841)
No.1:O204[2p_y]->W271[5d_x^2-y^2](1.925951578103841)
No.1:O204[2p_z]->W271[6s](1.925951578103841)
No.1:O204[2p_z]->W271[5d_xy](1.925951578103841)
No.1:O204[2p_z]->W271[5d_yz](1.925951578103841)
No.1:O204[2p_z]->W271[5d_z^2](1.925951578103841)
No.1:O204[2p_z]->W271[5d_xz](1.925951578103841)
No.1:O204[2p_z]->W271[5d_x^2-y^2](1.925951578103841)
No.1:O204[2p_x]->W271[6s](1.925951578103841)
No.1:O204[2p_x]->W271[5d_xy](1.925951578103841)
No.1:O204[2p_x]->W271[5d_yz](1.925951578103841)
No.1:O204[2p_x]->W271[5d_z^2](1.925951578103841)
No.1:O204[2p_x]->W271[5d_xz](1.925951578103841)
No.1:O204[2p_x]->W271[5d_x^2-y^2](1.925951578103841)
No.2:C1->W271(2.1751082075625972)
No.2:C1[2s]->W271[6s](2.1751082075625972)
No.2:C1[2s]->W271[5d_xy](2.1751082075625972)
No.2:C1[2s]->W271[5d_yz](2.1751082075625972)
No.2:C1[2s]->W271[5d_z^2](2.1751082075625972)
No.2:C1[2s]->W271[5d_xz](2.1751082075625972)
No.2:C1[2s]->W271[5d_x^2-y^2](2.1751082075625972)
No.2:C1[2p_y]->W271[6s](2.1751082075625972)
No.2:C1[2p_y]->W271[5d_xy](2.1751082075625972)
No.2:C1[2p_y]->W271[5d_yz](2.1751082075625972)
No.2:C1[2p_y]->W271[5d_z^2](2.1751082075625972)
No.2:C1[2p_y]->W271[5d_xz](2.1751082075625972)
No.2:C1[2p_y]->W271[5d_x^2-y^2](2.1751082075625972)
No.2:C1[2p_z]->W271[6s](2.1751082075625972)
No.2:C1[2p_z]->W271[5d_xy](2.1751082075625972)
No.2:C1[2p_z]->W271[5d_yz](2.1751082075625972)
No.2:C1[2p_z]->W271[5d_z^2](2.1751082075625972)
No.2:C1[2p_z]->W271[5d_xz](2.1751082075625972)
No.2:C1[2p_z]->W271[5d_x^2-y^2](2.1751082075625972)
No.2:C1[2p_x]->W271[6s](2.1751082075625972)
No.2:C1[2p_x]->W271[5d_xy](2.1751082075625972)
No.2:C1[2p_x]->W271[5d_yz](2.1751082075625972)
No.2:C1[2p_x]->W271[5d_z^2](2.1751082075625972)
No.2:C1[2p_x]->W271[5d_xz](2.1751082075625972)
No.2:C1[2p_x]->W271[5d_x^2-y^2](2.1751082075625972)
No.3:O205->W271(1.7209164153699461)
No.3:O205[2s]->W271[6s](1.7209164153699461)
No.3:O205[2s]->W271[5d_xy](1.7209164153699461)
No.3:O205[2s]->W271[5d_yz](1.7209164153699461)
No.3:O205[2s]->W271[5d_z^2](1.7209164153699461)
No.3:O205[2s]->W271[5d_xz](1.7209164153699461)
No.3:O205[2s]->W271[5d_x^2-y^2](1.7209164153699461)
No.3:O205[2p_y]->W271[6s](1.7209164153699461)
No.3:O205[2p_y]->W271[5d_xy](1.7209164153699461)
No.3:O205[2p_y]->W271[5d_yz](1.7209164153699461)
No.3:O205[2p_y]->W271[5d_z^2](1.7209164153699461)
No.3:O205[2p_y]->W271[5d_xz](1.7209164153699461)
No.3:O205[2p_y]->W271[5d_x^2-y^2](1.7209164153699461)
No.3:O205[2p_z]->W271[6s](1.7209164153699461)
No.3:O205[2p_z]->W271[5d_xy](1.7209164153699461)
No.3:O205[2p_z]->W271[5d_yz](1.7209164153699461)
No.3:O205[2p_z]->W271[5d_z^2](1.7209164153699461)
No.3:O205[2p_z]->W271[5d_xz](1.7209164153699461)
No.3:O205[2p_z]->W271[5d_x^2-y^2](1.7209164153699461)
No.3:O205[2p_x]->W271[6s](1.7209164153699461)
No.3:O205[2p_x]->W271[5d_xy](1.7209164153699461)
No.3:O205[2p_x]->W271[5d_yz](1.7209164153699461)
No.3:O205[2p_x]->W271[5d_z^2](1.7209164153699461)
No.3:O205[2p_x]->W271[5d_xz](1.7209164153699461)
No.3:O205[2p_x]->W271[5d_x^2-y^2](1.7209164153699461)
-20.02503   0.00000  -0.02064   0.00000  -0.04628   0.00000  -0.03654   0.00000  -0.00949   0.00000  -0.00268   0.00000   0.00169   0.00000  -0.00036   0.00000   0.00249   0.00000  -0.00046   0.00000  -0.00020   0.00000  -0.00008   0.00000   0.00011   0.00000  -0.00005   0.00000   0.00089   0.00000   0.00017   0.00000   0.00021   0.00000  -0.00002   0.00000   0.00029   0.00000  -0.00004   0.00000  -0.00011   0.00000  -0.00137   0.00000  -0.00069   0.00000  -0.00020   0.00000   0.00011   0.00000   0.00007   0.00000   0.00000   0.00000  -0.00454   0.00000  -0.00366   0.00000   0.00065   0.00000   0.00078   0.00000  -0.00005   0.00000  -0.00012   0.00000  -0.00011   0.00000  -0.00070   0.00000   0.00012   0.00000   0.00005   0.00000  -0.00028   0.00000   0.00005   0.00000   0.00004   0.00000  -0.00293   0.00000   0.00105   0.00000   0.00076   0.00000   0.00001   0.00000  -0.00007   0.00000  -0.00013   0.00000  -0.00001   0.00000   0.00000   0.00000   0.00002   0.00000   0.00000   0.00000   0.00000   0.00000  -0.00001   0.00000  -0.01108   0.00000  -0.01548   0.00000   0.00327   0.00000  -0.00064   0.00000   0.00096   0.00000  -0.00034   0.00000   0.00091   0.00000  -0.00048   0.00000   0.00003   0.00000  -0.00000   0.00000   0.00001   0.00000   0.00003   0.00000   0.00057   0.00000  -0.00048   0.00000   0.00056   0.00000   0.00006   0.00000   0.00040   0.00000   0.00002   0.00000   0.00016   0.00000  -0.00120   0.00000   0.00103   0.00000  -0.00036   0.00000   0.00005   0.00000  -0.00007   0.00000  -0.00010
-19.97497  -0.02892  -0.02208  -0.07443  -0.05001  -0.04894  -0.03899  -0.01786  -0.01039  -0.00585  -0.00297  -0.00048   0.00166  -0.00372  -0.00055   0.00358   0.00267  -0.00054  -0.00049  -0.00034  -0.00022  -0.00016  -0.00009  -0.00004   0.00011  -0.00053  -0.00008   0.00116   0.00095   0.00066   0.00020   0.00076   0.00025  -0.00006  -0.00002   0.00086   0.00033  -0.00014  -0.00005  -0.00032  -0.00013  -0.00134  -0.00144  -0.00091  -0.00074  -0.00027  -0.00021   0.00009   0.00012  -0.00004   0.00007   0.00000   0.00000  -0.00311  -0.00470  -0.00441  -0.00388   0.00115   0.00070   0.00161   0.00087   0.00029  -0.00004  -0.00053  -0.00015  -0.00016  -0.00012  -0.00113  -0.00075   0.00026   0.00013   0.00013   0.00005  -0.00035  -0.00030  -0.00002   0.00005   0.00006   0.00005  -0.00213  -0.00304   0.00125   0.00111   0.00117   0.00081  -0.00002   0.00001  -0.00033  -0.00009  -0.00014  -0.00014   0.00013  -0.00000  -0.00001   0.00000  -0.00000   0.00002   0.00006   0.00000   0.00000   0.00000   0.00000  -0.00001  -0.00921  -0.01154  -0.01496  -0.01623   0.00399   0.00347  -0.00060  -0.00067   0.00100   0.00101  -0.00017  -0.00035   0.00071   0.00095  -0.00037  -0.00050   0.00004   0.00003  -0.00000  -0.00000  -0.00000   0.00001   0.00024   0.00004   0.00054   0.00059  -0.00033  -0.00050   0.00052   0.00059   0.00005   0.00007   0.00025   0.00041  -0.00001   0.00002   0.00010   0.00017  -0.00101  -0.00125   0.00115   0.00109  -0.00036  -0.00038   0.00004   0.00006   0.00004  -0.00007  -0.00008  -0.00011
-19.92491  -0.03137  -0.02365  -0.08221  -0.05413  -0.05176  -0.04158  -0.01985  -0.01138  -0.00614  -0.00328  -0.00083   0.00162  -0.00512  -0.00081   0.00291   0.00281  -0.00055  -0.00051  -0.00037  -0.00024  -0.00016  -0.00010  -0.00005   0.00010  -0.00068  -0.00011   0.00094   0.00100   0.00077   0.00024   0.00087   0.00029  -0.00007  -0.00003   0.00084   0.00038  -0.00016  -0.00006  -0.00028  -0.00014  -0.00131  -0.00150  -0.00093  -0.00079  -0.00027  -0.00023   0.00008   0.00012  -0.00009   0.00006   0.00000   0.00000  -0.00320  -0.00486  -0.00446  -0.00411   0.00119   0.00076   0.00154   0.00094   0.00028  -0.00003  -0.00060  -0.00018  -0.00013  -0.00012  -0.00122  -0.00081   0.00031   0.00015   0.00018   0.00006  -0.00026  -0.00031  -0.00013   0.00005   0.00005   0.00005  -0.00190  -0.00314   0.00115   0.00117   0.00104   0.00087  -0.00001   0.00001  -0.00033  -0.00010  -0.00011  -0.00014   0.00022   0.00001  -0.00002   0.00000  -0.00004   0.00001   0.00006   0.00001  -0.00000   0.00000  -0.00000  -0.00001  -0.00870  -0.01198  -0.01429  -0.01694   0.00389   0.00367  -0.00051  -0.00070   0.00096   0.00105  -0.00004  -0.00036   0.00052   0.00097  -0.00033  -0.00052   0.00003   0.00004  -0.00000  -0.00000  -0.00000   0.00001   0.00023   0.00005   0.00043   0.00061  -0.00030  -0.00051   0.00048   0.00061   0.00005   0.00007   0.00022   0.00042  -0.00002   0.00002   0.00008   0.00017  -0.00094  -0.00129   0.00111   0.00115  -0.00032  -0.00039   0.00004   0.00006   0.00007  -0.00007  -0.00006  -0.00011
-19.87484  -0.04195  -0.02575  -0.11290  -0.05978  -0.06622  -0.04489  -0.02731  -0.01275  -0.00795  -0.00368  -0.00193   0.00152  -0.00914  -0.00126   0.00197   0.00291  -0.00067  -0.00055  -0.00048  -0.00026  -0.00020  -0.00011  -0.00011   0.00010  -0.00115  -0.00017   0.00065   0.00103   0.00112   0.00030   0.00122   0.00035  -0.00008  -0.00003   0.00091   0.00042  -0.00022  -0.00007  -0.00021  -0.00015  -0.00146  -0.00158  -0.00113  -0.00084  -0.00034  -0.00024   0.00006   0.00012  -0.00024   0.00005   0.00000   0.00000  -0.00404  -0.00506  -0.00538  -0.00438   0.00149   0.00084   0.00171   0.00103   0.00032  -0.00001  -0.00086  -0.00022  -0.00009  -0.00013  -0.00159  -0.00089   0.00046   0.00017   0.00032   0.00008  -0.00008  -0.00032  -0.00040   0.00003   0.00003   0.00005  -0.00186  -0.00323   0.00116   0.00123   0.00097   0.00091  -0.00001   0.00001  -0.00036  -0.00012  -0.00008  -0.00015   0.00041   0.00003  -0.00003  -0.00000  -0.00016   0.00000   0.00002   0.00001  -0.00001  -0.00000  -0.00001  -0.00001  -0.00891  -0.01242  -0.01515  -0.01770   0.00441   0.00389  -0.00059  -0.00073   0.00089   0.00110   0.00038  -0.00034   0.00031   0.00099  -0.00032  -0.00053   0.00003   0.00004  -0.00000  -0.00000  -0.00000   0.00001   0.00027   0.00007   0.00031   0.00063  -0.00029  -0.00053   0.00050   0.00064   0.00005   0.00007   0.00019   0.00043  -0.00004   0.00002   0.00005   0.00017  -0.00099  -0.00134   0.00123   0.00121  -0.00034  -0.00041   0.00004   0.00006   0.00018  -0.00006  -0.00004  -0.00011
-19.82478  -0.06976  -0.02925  -0.19252  -0.06942  -0.10474  -0.05014  -0.04644  -0.01507  -0.01313  -0.00434  -0.00498   0.00127  -0.01909  -0.00222   0.00040   0.00293  -0.00102  -0.00060  -0.00078  -0.00030  -0.00032  -0.00012  -0.00025   0.00009  -0.00232  -0.00029   0.00020   0.00104   0.00201   0.00040   0.00212   0.00046  -0.00011  -0.00004   0.00122   0.00048  -0.00039  -0.00009  -0.00009  -0.00016  -0.00196  -0.00167  -0.00171  -0.00093  -0.00056  -0.00027   0.00001   0.00012  -0.00059   0.00002   0.00000   0.00000  -0.00638  -0.00538  -0.00811  -0.00478   0.00236   0.00096   0.00246   0.00115   0.00050   0.00002  -0.00157  -0.00030  -0.00004  -0.00013  -0.00257  -0.00102   0.00083   0.00022   0.00066   0.00011   0.00027  -0.00030  -0.00101  -0.00002  -0.00002   0.00005  -0.00223  -0.00334   0.00145   0.00130   0.00108   0.00097  -0.00002   0.00000  -0.00051  -0.00015  -0.00006  -0.00015   0.00081   0.00007  -0.00008  -0.00001  -0.00043  -0.00002  -0.00010   0.00000  -0.00004  -0.00000  -0.00005  -0.00001  -0.01036  -0.01294  -0.01890  -0.01865   0.00617   0.00420  -0.00102  -0.00078   0.00070   0.00113   0.00148  -0.00026   0.00006   0.00099  -0.00038  -0.00055   0.00004   0.00004  -0.00000  -0.00000  -0.00000   0.00001   0.00041   0.00009   0.00020   0.00064  -0.00034  -0.00055   0.00065   0.00067   0.00006   0.00007   0.00012   0.00044  -0.00009   0.00001   0.00003   0.00018  -0.00123  -0.00141   0.00169   0.00129  -0.00051  -0.00043   0.00002   0.00006   0.00049  -0.00003  -0.00001  -0.00011
-19.77472  -0.12906  -0.03571  -0.36217  -0.08755  -0.18630  -0.05946  -0.08697  -0.01943  -0.02454  -0.00556  -0.01190   0.00068  -0.04047  -0.00425  -0.00270   0.00280  -0.00178  -0.00069  -0.00144  -0.00037  -0.00058  -0.00015  -0.00058   0.00006  -0.00484  -0.00053  -0.00065   0.00101   0.00387   0.00059   0.00402   0.00066  -0.00019  -0.00005   0.00199   0.00058  -0.00076  -0.00013   0.00015  -0.00015  -0.00306  -0.00183  -0.00294  -0.00108  -0.00108  -0.00033  -0.00008   0.00012  -0.00134  -0.00005  -0.00000   0.00000  -0.01137  -0.00595  -0.01407  -0.00549   0.00426   0.00117   0.00426   0.00136   0.00099   0.00006  -0.00315  -0.00046   0.00005  -0.00013  -0.00462  -0.00125   0.00161   0.00030   0.00136   0.00018   0.00100  -0.00025  -0.00231  -0.00014  -0.00011   0.00004  -0.00326  -0.00350   0.00219   0.00141   0.00148   0.00104  -0.00002   0.00000  -0.00086  -0.00019  -0.00002  -0.00015   0.00161   0.00015  -0.00016  -0.00001  -0.00101  -0.00007  -0.00037  -0.00001  -0.00010  -0.00001  -0.00012  -0.00001  -0.01365  -0.01362  -0.02727  -0.02001   0.01002   0.00470  -0.00207  -0.00088   0.00021   0.00114   0.00384  -0.00007  -0.00029   0.00098  -0.00052  -0.00058   0.00006   0.00004  -0.00000  -0.00000  -0.00001   0.00001   0.00073   0.00012   0.00006   0.00064  -0.00047  -0.00057   0.00099   0.00072   0.00011   0.00008  -0.00001   0.00044  -0.00019   0.00000  -0.00001   0.00018  -0.00178  -0.00149   0.00275   0.00143  -0.00096  -0.00048  -0.00000   0.00006   0.00114   0.00003   0.00002  -0.00011
-19.72466  -0.23862  -0.04765  -0.67597  -0.12139  -0.33529  -0.07625  -0.16158  -0.02751  -0.04578  -0.00786  -0.02529  -0.00059  -0.08087  -0.00829  -0.00898   0.00235  -0.00318  -0.00085  -0.00265  -0.00051  -0.00106  -0.00021  -0.00123  -0.00000  -0.00961  -0.00101  -0.00233   0.00089   0.00727   0.00096   0.00755   0.00104  -0.00034  -0.00006   0.00353   0.00076  -0.00146  -0.00020   0.00062  -0.00012  -0.00506  -0.00208  -0.00520  -0.00134  -0.00203  -0.00043  -0.00027   0.00011  -0.00273  -0.00019  -0.00000   0.00000  -0.02054  -0.00698  -0.02506  -0.00674   0.00779   0.00156   0.00768   0.00175   0.00196   0.00016  -0.00616  -0.00077   0.00023  -0.00011  -0.00837  -0.00167   0.00304   0.00045   0.00263   0.00031   0.00235  -0.00013  -0.00473  -0.00038  -0.00032   0.00003  -0.00525  -0.00377   0.00361   0.00159   0.00234   0.00116  -0.00004   0.00000  -0.00152  -0.00027   0.00003  -0.00015   0.00306   0.00030  -0.00032  -0.00003  -0.00208  -0.00017  -0.00092  -0.00006  -0.00020  -0.00002  -0.00029  -0.00003  -0.01936  -0.01459  -0.04222  -0.02212   0.01701   0.00555  -0.00406  -0.00108  -0.00075   0.00111   0.00821   0.00034  -0.00088   0.00093  -0.00080  -0.00062   0.00010   0.00005  -0.00000  -0.00000  -0.00002   0.00001   0.00135   0.00019  -0.00014   0.00064  -0.00071  -0.00060   0.00163   0.00080   0.00020   0.00009  -0.00027   0.00042  -0.00039  -0.00002  -0.00007   0.00017  -0.00280  -0.00163   0.00469   0.00167  -0.00181  -0.00057  -0.00006   0.00006   0.00236   0.00014   0.00008  -0.00011
-19.67459  -0.41629  -0.06849  -1.18552  -0.18074  -0.57401  -0.10499  -0.28209  -0.04164  -0.08007  -0.01186  -0.04764  -0.00297  -0.14810  -0.01571  -0.02075   0.00131  -0.00542  -0.00112  -0.00461  -0.00074  -0.00185  -0.00030  -0.00231  -0.00012  -0.01754  -0.00189  -0.00545   0.00062   0.01275   0.00159   0.01327   0.00170  -0.00058  -0.00009   0.00614   0.00107  -0.00264  -0.00033   0.00152  -0.00004  -0.00822  -0.00249  -0.00879  -0.00178  -0.00355  -0.00061  -0.00057   0.00008  -0.00501  -0.00044  -0.00001   0.00000  -0.03542  -0.00875  -0.04265  -0.00888   0.01350   0.00223   0.01324   0.00241   0.00360   0.00034  -0.01116  -0.00133   0.00055  -0.00009  -0.01441  -0.00239   0.00534   0.00072   0.00468   0.00055   0.00457   0.00009  -0.00876  -0.00081  -0.00071  -0.00001  -0.00843  -0.00419   0.00589   0.00189   0.00373   0.00135  -0.00007  -0.00000  -0.00260  -0.00040   0.00012  -0.00014   0.00539   0.00057  -0.00057  -0.00006  -0.00381  -0.00036  -0.00184  -0.00015  -0.00038  -0.00004  -0.00063  -0.00006  -0.02791  -0.01599  -0.06525  -0.02539   0.02792   0.00695  -0.00724  -0.00145  -0.00235   0.00099   0.01524   0.00110  -0.00189   0.00084  -0.00124  -0.00068   0.00016   0.00006  -0.00000  -0.00000  -0.00004   0.00001   0.00233   0.00031  -0.00044   0.00061  -0.00109  -0.00066   0.00264   0.00093   0.00034   0.00011  -0.00069   0.00039  -0.00071  -0.00005  -0.00016   0.00016  -0.00439  -0.00185   0.00774   0.00205  -0.00317  -0.00073  -0.00015   0.00005   0.00435   0.00036   0.00018  -0.00010
-19.62453  -0.66814  -0.10194  -1.90866  -0.27629  -0.90778  -0.15043  -0.45193  -0.06426  -0.12802  -0.01827  -0.08001  -0.00698  -0.24620  -0.02803  -0.04052  -0.00072  -0.00854  -0.00155  -0.00737  -0.00111  -0.00294  -0.00045  -0.00386  -0.00031  -0.02909  -0.00334  -0.01067   0.00008   0.02043   0.00262   0.02137   0.00277  -0.00093  -0.00014   0.00996   0.00156  -0.00436  -0.00055   0.00302   0.00011  -0.01256  -0.00312  -0.01375  -0.00246  -0.00565  -0.00089  -0.00100   0.00003  -0.00825  -0.00085  -0.00002   0.00000  -0.05670  -0.01159  -0.06718  -0.01224   0.02152   0.00331   0.02100   0.00346   0.00596   0.00064  -0.01844  -0.00225   0.00108  -0.00003  -0.02290  -0.00354   0.00861   0.00115   0.00755   0.00093   0.00779   0.00048  -0.01467  -0.00155  -0.00137  -0.00008  -0.01276  -0.00483   0.00902   0.00234   0.00564   0.00163  -0.00010  -0.00001  -0.00412  -0.00060   0.00025  -0.00013   0.00868   0.00101  -0.00094  -0.00010  -0.00626  -0.00068  -0.00319  -0.00031  -0.00065  -0.00007  -0.00120  -0.00012  -0.03907  -0.01795  -0.09605  -0.03020   0.04267   0.00909  -0.01155  -0.00202  -0.00461   0.00076   0.02502   0.00236  -0.00343   0.00067  -0.00183  -0.00077   0.00024   0.00007  -0.00000  -0.00000  -0.00006   0.00000   0.00369   0.00049  -0.00089   0.00057  -0.00160  -0.00074   0.00401   0.00113   0.00053   0.00013  -0.00128   0.00033  -0.00115  -0.00011  -0.00030   0.00015  -0.00654  -0.00218   0.01191   0.00265  -0.00504  -0.00098  -0.00029   0.00004   0.00713   0.00072   0.00034  -0.00008
-19.57447  -0.97630  -0.15082  -2.79429  -0.41618  -1.30864  -0.21595  -0.65787  -0.09720  -0.18540  -0.02755  -0.12049  -0.01301  -0.37074  -0.04659  -0.06991  -0.00422  -0.01229  -0.00216  -0.01070  -0.00164  -0.00425  -0.00066  -0.00580  -0.00060  -0.04370  -0.00553  -0.01840  -0.00084   0.02970   0.00410   0.03124   0.00433  -0.00134  -0.00021   0.01479   0.00231  -0.00657  -0.00088   0.00528   0.00037  -0.01766  -0.00401  -0.01963  -0.00345  -0.00810  -0.00129  -0.00152  -0.00005  -0.01225  -0.00146  -0.00003  -0.00000  -0.08309  -0.01575  -0.09650  -0.01707   0.03119   0.00487   0.03024   0.00498   0.00890   0.00109  -0.02760  -0.00363   0.00187   0.00006  -0.03315  -0.00520   0.01258   0.00178   0.01100   0.00148   0.01183   0.00108  -0.02222  -0.00266  -0.00236  -0.00019  -0.01776  -0.00572   0.01265   0.00297   0.00784   0.00202  -0.00015  -0.00001  -0.00594  -0.00090   0.00043  -0.00011   0.01270   0.00164  -0.00139  -0.00017  -0.00924  -0.00114  -0.00493  -0.00056  -0.00100  -0.00012  -0.00208  -0.00022  -0.05152  -0.02053  -0.13114  -0.03677   0.05958   0.01207  -0.01645  -0.00285  -0.00725   0.00040   0.03656   0.00419  -0.00551   0.00039  -0.00249  -0.00090   0.00033   0.00008  -0.00000  -0.00000  -0.00009  -0.00000   0.00525   0.00076  -0.00147   0.00050  -0.00219  -0.00085   0.00558   0.00141   0.00075   0.00017  -0.00197   0.00023  -0.00167  -0.00019  -0.00049   0.00013  -0.00901  -0.00263   0.01675   0.00349  -0.00718  -0.00134  -0.00044   0.00001   0.01047   0.00124   0.00055  -0.00005
-19.52441  -1.29390  -0.21559  -3.70805  -0.60181  -1.70989  -0.30155  -0.86699  -0.14060  -0.24245  -0.03969  -0.16356  -0.02120  -0.50616  -0.07193  -0.10839  -0.00964  -0.01603  -0.00296  -0.01407  -0.00235  -0.00555  -0.00094  -0.00786  -0.00100  -0.05953  -0.00851  -0.02849  -0.00226   0.03904   0.00606   0.04135   0.00640  -0.00175  -0.00029   0.02000   0.00331  -0.00900  -0.00133   0.00825   0.00079  -0.02260  -0.00514  -0.02539  -0.00472  -0.01045  -0.00182  -0.00205  -0.00015  -0.01642  -0.00228  -0.00005  -0.00000  -0.11089  -0.02130  -0.12563  -0.02336   0.04093   0.00692   0.03935   0.00695   0.01199   0.00169  -0.03747  -0.00551   0.00289   0.00021  -0.04349  -0.00738   0.01666   0.00261   0.01445   0.00220   0.01616   0.00189  -0.03049  -0.00419  -0.00367  -0.00038  -0.02245  -0.00684   0.01609   0.00378   0.00988   0.00252  -0.00019  -0.00002  -0.00775  -0.00129   0.00064  -0.00008   0.01683   0.00249  -0.00186  -0.00027  -0.01228  -0.00175  -0.00682  -0.00090  -0.00139  -0.00019  -0.00326  -0.00039  -0.06276  -0.02367  -0.16365  -0.04496   0.07531   0.01584  -0.02090  -0.00389  -0.00971  -0.00009   0.04771   0.00658  -0.00793  -0.00001  -0.00309  -0.00105   0.00042   0.00010  -0.00000  -0.00000  -0.00011  -0.00001   0.00672   0.00109  -0.00211   0.00039  -0.00273  -0.00099   0.00705   0.00177   0.00096   0.00022  -0.00262   0.00010  -0.00217  -0.00030  -0.00071   0.00009  -0.01134  -0.00320   0.02133   0.00456  -0.00917  -0.00180  -0.00059  -0.00002   0.01379   0.00193   0.00081  -0.00001
-19.47434  -1.55491  -0.29344  -4.46025  -0.82511  -2.02152  -0.40275  -1.03397  -0.19236  -0.28629  -0.05403  -0.20113  -0.03127  -0.62809  -0.10338  -0.15222  -0.01727  -0.01891  -0.00391  -0.01675  -0.00319  -0.00654  -0.00126  -0.00964  -0.00148  -0.07368  -0.01220  -0.03992  -0.00426   0.04637   0.00838   0.04954   0.00888  -0.00208  -0.00040   0.02467   0.00454  -0.01123  -0.00189   0.01167   0.00137  -0.02621  -0.00645  -0.02971  -0.00621  -0.01214  -0.00243  -0.00248  -0.00028  -0.01992  -0.00328  -0.00007  -0.00001  -0.13459  -0.02804  -0.14793  -0.03077   0.04859   0.00936   0.04624   0.00926   0.01464   0.00242  -0.04622  -0.00782   0.00404   0.00041  -0.05165  -0.00996   0.01995   0.00361   0.01713   0.00306   0.01996   0.00289  -0.03802  -0.00609  -0.00517  -0.00064  -0.02563  -0.00812   0.01847   0.00470   0.01124   0.00308  -0.00023  -0.00004  -0.00915  -0.00175   0.00086  -0.00004   0.02018   0.00350  -0.00225  -0.00038  -0.01471  -0.00249  -0.00855  -0.00133  -0.00175  -0.00028  -0.00465  -0.00062  -0.06991  -0.02717  -0.18526  -0.05423   0.08576   0.02013  -0.02366  -0.00508  -0.01129  -0.00066   0.05566   0.00936  -0.01029  -0.00052  -0.00346  -0.00122   0.00047   0.00013  -0.00000  -0.00000  -0.00013  -0.00001   0.00769   0.00148  -0.00267   0.00026  -0.00309  -0.00114   0.00803   0.00217   0.00109   0.00027  -0.00307  -0.00006  -0.00255  -0.00043  -0.00093   0.00004  -0.01294  -0.00385   0.02452   0.00578  -0.01048  -0.00233  -0.00070  -0.00005   0.01632   0.00275   0.00108   0.00004
-19.42428  -1.69723  -0.37841  -4.87197  -1.06901  -2.16374  -0.51107  -1.11749  -0.24831  -0.30567  -0.06933  -0.22508  -0.04254  -0.71070  -0.13896  -0.19444  -0.02700  -0.02020  -0.00492  -0.01806  -0.00409  -0.00697  -0.00161  -0.01075  -0.00202  -0.08313  -0.01636  -0.05086  -0.00681   0.04985   0.01087   0.05383   0.01158  -0.00223  -0.00051   0.02785   0.00594  -0.01279  -0.00253   0.01499   0.00212  -0.02751  -0.00783  -0.03144  -0.00778  -0.01270  -0.00306  -0.00270  -0.00041  -0.02192  -0.00438  -0.00008  -0.00001  -0.14877  -0.03549  -0.15763  -0.03866   0.05226   0.01197   0.04912   0.01172   0.01627   0.00323  -0.05196  -0.01042   0.00514   0.00066  -0.05555  -0.01274   0.02166   0.00469   0.01835   0.00398   0.02241   0.00401  -0.04323  -0.00826  -0.00663  -0.00097  -0.02639  -0.00944   0.01913   0.00566   0.01153   0.00366  -0.00024  -0.00005  -0.00977  -0.00223   0.00103   0.00002   0.02195   0.00460  -0.00247  -0.00050  -0.01593  -0.00329  -0.00975  -0.00182  -0.00202  -0.00038  -0.00605  -0.00092  -0.07093  -0.03072  -0.18969  -0.06373   0.08778   0.02453  -0.02379  -0.00627  -0.01145  -0.00123   0.05808   0.01227  -0.01209  -0.00113  -0.00349  -0.00140   0.00047   0.00015  -0.00000  -0.00000  -0.00013  -0.00002   0.00788   0.00187  -0.00301   0.00011  -0.00316  -0.00130   0.00824   0.00258   0.00110   0.00033  -0.00319  -0.00022  -0.00268  -0.00056  -0.00109  -0.00001  -0.01335  -0.00452   0.02540   0.00706  -0.01071  -0.00286  -0.00073  -0.00009   0.01740   0.00362   0.00130   0.00011
-19.37422  -1.68736  -0.46288  -4.84612  -1.31162  -2.10098  -0.61625  -1.09714  -0.30323  -0.29574  -0.08413  -0.23011  -0.05406  -0.73566  -0.17579  -0.22635  -0.03833  -0.01958  -0.00590  -0.01769  -0.00498  -0.00673  -0.00195  -0.01096  -0.00257  -0.08578  -0.02066  -0.05906  -0.00976   0.04859   0.01331   0.05318   0.01424  -0.00218  -0.00062   0.02886   0.00738  -0.01336  -0.00320   0.01754   0.00300  -0.02617  -0.00914  -0.03013  -0.00929  -0.01198  -0.00366  -0.00266  -0.00054  -0.02196  -0.00548  -0.00009  -0.00001  -0.15017  -0.04301  -0.15229  -0.04628   0.05102   0.01453   0.04728   0.01409   0.01652   0.00406  -0.05342  -0.01310   0.00594   0.00096  -0.05423  -0.01546   0.02136   0.00576   0.01779   0.00487   0.02295   0.00516  -0.04495  -0.01051  -0.00775  -0.00136  -0.02450  -0.01067   0.01789   0.00656   0.01067   0.00419  -0.00023  -0.00006  -0.00946  -0.00271   0.00112   0.00007   0.02169   0.00568  -0.00247  -0.00063  -0.01563  -0.00407  -0.01015  -0.00233  -0.00214  -0.00048  -0.00718  -0.00128  -0.06578  -0.03401  -0.17580  -0.07253   0.08065   0.02856  -0.02111  -0.00733  -0.00997  -0.00173   0.05408   0.01498  -0.01293  -0.00177  -0.00317  -0.00156   0.00043   0.00017  -0.00000  -0.00000  -0.00012  -0.00003   0.00719   0.00223  -0.00305  -0.00005  -0.00292  -0.00144   0.00761   0.00296   0.00100   0.00038  -0.00291  -0.00036  -0.00253  -0.00069  -0.00117  -0.00007  -0.01248  -0.00514   0.02371   0.00824  -0.00975  -0.00335  -0.00068  -0.00012   0.01671   0.00446   0.00142   0.00018
-19.32416  -1.53277  -0.53961  -4.40295  -1.53204  -1.85576  -0.70916  -0.98117  -0.35235  -0.25988  -0.09714  -0.21555  -0.06485  -0.69845  -0.21075  -0.24026  -0.05036  -0.01725  -0.00677  -0.01578  -0.00577  -0.00589  -0.00225  -0.01022  -0.00308  -0.08115  -0.02472  -0.06252  -0.01289   0.04306   0.01546   0.04791   0.01664  -0.00194  -0.00071   0.02758   0.00876  -0.01282  -0.00384   0.01869   0.00394  -0.02262  -0.01027  -0.02621  -0.01060  -0.01018  -0.00417  -0.00237  -0.00066  -0.02007  -0.00648  -0.00010  -0.00002  -0.13890  -0.04996  -0.13375  -0.05298   0.04535   0.01680   0.04131   0.01616   0.01536   0.00483  -0.05035  -0.01562   0.00628   0.00128  -0.04820  -0.01787   0.01919   0.00672   0.01564   0.00565   0.02146   0.00623  -0.04283  -0.01265  -0.00827  -0.00177  -0.02055  -0.01170   0.01513   0.00731   0.00892   0.00464  -0.00020  -0.00007  -0.00834  -0.00313   0.00111   0.00013   0.01955   0.00666  -0.00225  -0.00074  -0.01392  -0.00477  -0.00967  -0.00281  -0.00208  -0.00059  -0.00778  -0.00167  -0.05645  -0.03684  -0.14810  -0.07994   0.06643   0.03189  -0.01625  -0.00814  -0.00711  -0.00208   0.04462   0.01721  -0.01267  -0.00241  -0.00259  -0.00169   0.00035   0.00019  -0.00000  -0.00000  -0.00009  -0.00003   0.00583   0.00252  -0.00276  -0.00018  -0.00244  -0.00157   0.00632   0.00328   0.00080   0.00042  -0.00232  -0.00048  -0.00215  -0.00080  -0.00114  -0.00013  -0.01059  -0.00567   0.01996   0.00924  -0.00786  -0.00375  -0.00055  -0.00015   0.01446   0.00518   0.00142   0.00025
-19.27409  -1.27587  -0.60349  -3.66345  -1.71544  -1.49543  -0.78402  -0.80115  -0.39246  -0.20776  -0.10754  -0.18524  -0.07412  -0.60912  -0.24125  -0.23249  -0.06200  -0.01387  -0.00746  -0.01285  -0.00641  -0.00470  -0.00248  -0.00874  -0.00352  -0.07051  -0.02825  -0.06035  -0.01592   0.03476   0.01720   0.03947   0.01862  -0.00158  -0.00079   0.02440   0.00998  -0.01134  -0.00441   0.01813   0.00484  -0.01782  -0.01116  -0.02074  -0.01164  -0.00779  -0.00456  -0.00190  -0.00076  -0.01674  -0.00732  -0.00009  -0.00002  -0.11809  -0.05587  -0.10709  -0.05834   0.03679   0.01864   0.03285   0.01780   0.01313   0.00549  -0.04361  -0.01780   0.00604   0.00158  -0.03914  -0.01983   0.01573   0.00751   0.01247   0.00627   0.01830   0.00715  -0.03743  -0.01452  -0.00804  -0.00217  -0.01560  -0.01248   0.01160   0.00789   0.00675   0.00497  -0.00016  -0.00008  -0.00671  -0.00346   0.00099   0.00018   0.01611   0.00747  -0.00187  -0.00083  -0.01125  -0.00533  -0.00842  -0.00323  -0.00185  -0.00068  -0.00768  -0.00206  -0.04606  -0.03914  -0.11456  -0.08568   0.04883   0.03433  -0.01033  -0.00866  -0.00339  -0.00225   0.03194   0.01881  -0.01150  -0.00298  -0.00192  -0.00178   0.00025   0.00020  -0.00000  -0.00000  -0.00005  -0.00003   0.00413   0.00273  -0.00226  -0.00030  -0.00186  -0.00166   0.00472   0.00352   0.00055   0.00045  -0.00153  -0.00056  -0.00162  -0.00088  -0.00102  -0.00018  -0.00822  -0.00608   0.01515   0.01000  -0.00551  -0.00402  -0.00037  -0.00017   0.01121   0.00574   0.00131   0.00031
-19.22403  -0.97529  -0.65231  -2.79574  -1.85540  -1.10221  -0.83920  -0.59793  -0.42240  -0.15107  -0.11511  -0.14589  -0.08142  -0.48793  -0.26567  -0.20504  -0.07226  -0.01020  -0.00797  -0.00956  -0.00689  -0.00340  -0.00265  -0.00684  -0.00386  -0.05625  -0.03107  -0.05310  -0.01857   0.02557   0.01848   0.02978   0.02011  -0.00119  -0.00085   0.02010   0.01099  -0.00924  -0.00487   0.01598   0.00564  -0.01287  -0.01181  -0.01494  -0.01239  -0.00532  -0.00483  -0.00136  -0.00082  -0.01273  -0.00796  -0.00008  -0.00003  -0.09253  -0.06050  -0.07837  -0.06226   0.02728   0.02000   0.02380   0.01899   0.01031   0.00600  -0.03473  -0.01954   0.00530   0.00184  -0.02913  -0.02129   0.01178   0.00810   0.00896   0.00672   0.01413   0.00785  -0.02994  -0.01602  -0.00713  -0.00253  -0.01074  -0.01302   0.00810   0.00830   0.00467   0.00521  -0.00012  -0.00008  -0.00495  -0.00371   0.00080   0.00022   0.01218   0.00808  -0.00142  -0.00090  -0.00820  -0.00574  -0.00666  -0.00356  -0.00151  -0.00076  -0.00693  -0.00240  -0.03759  -0.04102  -0.08308  -0.08984   0.03159   0.03592  -0.00441  -0.00888   0.00066  -0.00222   0.01850   0.01974  -0.00985  -0.00348  -0.00130  -0.00185   0.00016   0.00021  -0.00000  -0.00000  -0.00002  -0.00003   0.00247   0.00285  -0.00168  -0.00038  -0.00131  -0.00173   0.00314   0.00367   0.00032   0.00046  -0.00069  -0.00059  -0.00107  -0.00093  -0.00085  -0.00022  -0.00591  -0.00638   0.01031   0.01052  -0.00315  -0.00418  -0.00017  -0.00018   0.00762   0.00612   0.00112   0.00037