 vasp.5.4.4.18Apr17-6-g9f103f2a35 (build Oct 20 2021 08:33:53) complex           
 executed on             LinuxGNU date 2024.03.19  22:55:26
 running on   32 total cores
 distrk:  each k-point on   32 cores,    1 groups
 distr:  one band on NCORES_PER_BAND=   4 cores,    8 groups


--------------------------------------------------------------------------------------------------------


 INCAR:
 POTCAR:    PAW_PBE C 08Apr2002                   
 POTCAR:    PAW_PBE H 15Jun2001                   
 POTCAR:    PAW_PBE O 08Apr2002                   
 POTCAR:    PAW_PBE Si 05Jan2001                  
 POTCAR:    PAW_PBE W 08Apr2002                   
 POTCAR:    PAW_PBE C 08Apr2002                   
   VRHFIN =C: s2p2                                                              
   LEXCH  = PE                                                                  
   EATOM  =   147.1560 eV,   10.8157 Ry                                         
                                                                                
   TITEL  = PAW_PBE C 08Apr2002                                                 
   LULTRA =        F    use ultrasoft PP ?                                      
   IUNSCR =        1    unscreen: 0-lin 1-nonlin 2-no                           
   RPACOR =    1.200    partial core radius                                     
   POMASS =   12.011; ZVAL   =    4.000    mass and valenz                      
   RCORE  =    1.500    outmost cutoff radius                                   
   RWIGS  =    1.630; RWIGS  =    0.863    wigner-seitz radius (au A)           
   ENMAX  =  400.000; ENMIN  =  300.000 eV                                      
   ICORE  =        2    local potential                                         
   LCOR   =        T    correct aug charges                                     
   LPAW   =        T    paw PP                                                  
   EAUG   =  644.873                                                            
   DEXC   =    0.000                                                            
   RMAX   =    1.529    core radius for proj-oper                               
   RAUG   =    1.300    factor for augmentation sphere                          
   RDEP   =    1.501    radius for radial grids                                 
   RDEPT  =    1.300    core radius for aug-charge                              
                                                                                
   Atomic configuration                                                         
    4 entries                                                                   
     n  l   j            E        occ.                                          
     1  0  0.50      -273.3789   2.0000                                         
     2  0  0.50       -13.7508   2.0000                                         
     2  1  0.50        -5.2854   2.0000                                         
     3  2  1.50        -5.4423   0.0000                                         
   Description                                                                  
     l       E           TYP  RCUT    TYP  RCUT                                 
     0    -13.7508458     23  1.200                                             
     0     -8.2022199     23  1.200                                             
     1     -5.2854383     23  1.500                                             
     1     34.0145650     23  1.500                                             
     2     -5.4423304      7  1.500                                             
  local pseudopotential read in
  partial core-charges read in
  partial kinetic energy density read in
  atomic valenz-charges read in
  non local Contribution for L=           0  read in
    real space projection operators read in
  non local Contribution for L=           0  read in
    real space projection operators read in
  non local Contribution for L=           1  read in
    real space projection operators read in
  non local Contribution for L=           1  read in
    real space projection operators read in
    PAW grid and wavefunctions read in

   number of l-projection  operators is LMAX  =           4
   number of lm-projection operators is LMMAX =           8

 POTCAR:    PAW_PBE H 15Jun2001                   
   VRHFIN =H: ultrasoft test                                                    
   LEXCH  = PE                                                                  
   EATOM  =    12.4884 eV,    0.9179 Ry                                         
                                                                                
   TITEL  = PAW_PBE H 15Jun2001                                                 
   LULTRA =        F    use ultrasoft PP ?                                      
   IUNSCR =        0    unscreen: 0-lin 1-nonlin 2-no                           
   RPACOR =    0.000    partial core radius                                     
   POMASS =    1.000; ZVAL   =    1.000    mass and valenz                      
   RCORE  =    1.100    outmost cutoff radius                                   
   RWIGS  =    0.700; RWIGS  =    0.370    wigner-seitz radius (au A)           
   ENMAX  =  250.000; ENMIN  =  200.000 eV                                      
   RCLOC  =    0.701    cutoff for local pot                                    
   LCOR   =        T    correct aug charges                                     
   LPAW   =        T    paw PP                                                  
   EAUG   =  400.000                                                            
   RMAX   =    1.123    core radius for proj-oper                               
   RAUG   =    1.200    factor for augmentation sphere                          
   RDEP   =    1.112    radius for radial grids                                 
   RDEPT  =    0.926    core radius for aug-charge                              
                                                                                
   Atomic configuration                                                         
    2 entries                                                                   
     n  l   j            E        occ.                                          
     1  0  0.50        -6.4927   1.0000                                         
     2  1  0.50        -3.4015   0.0000                                         
   Description                                                                  
     l       E           TYP  RCUT    TYP  RCUT                                 
     0     -6.4927494     23  1.100                                             
     0      6.8029130     23  1.100                                             
     1     -4.0817478     23  1.100                                             
  local pseudopotential read in
  atomic valenz-charges read in
  non local Contribution for L=           0  read in
    real space projection operators read in
  non local Contribution for L=           0  read in
    real space projection operators read in
  non local Contribution for L=           1  read in
    real space projection operators read in
    PAW grid and wavefunctions read in

   number of l-projection  operators is LMAX  =           3
   number of lm-projection operators is LMMAX =           5

 POTCAR:    PAW_PBE O 08Apr2002                   
   VRHFIN =O: s2p4                                                              
   LEXCH  = PE                                                                  
   EATOM  =   432.3788 eV,   31.7789 Ry                                         
                                                                                
   TITEL  = PAW_PBE O 08Apr2002                                                 
   LULTRA =        F    use ultrasoft PP ?                                      
   IUNSCR =        1    unscreen: 0-lin 1-nonlin 2-no                           
   RPACOR =    1.200    partial core radius                                     
   POMASS =   16.000; ZVAL   =    6.000    mass and valenz                      
   RCORE  =    1.520    outmost cutoff radius                                   
   RWIGS  =    1.550; RWIGS  =    0.820    wigner-seitz radius (au A)           
   ENMAX  =  400.000; ENMIN  =  300.000 eV                                      
   ICORE  =        2    local potential                                         
   LCOR   =        T    correct aug charges                                     
   LPAW   =        T    paw PP                                                  
   EAUG   =  605.392                                                            
   DEXC   =    0.000                                                            
   RMAX   =    1.553    core radius for proj-oper                               
   RAUG   =    1.300    factor for augmentation sphere                          
   RDEP   =    1.550    radius for radial grids                                 
   RDEPT  =    1.329    core radius for aug-charge                              
                                                                                
   Atomic configuration                                                         
    4 entries                                                                   
     n  l   j            E        occ.                                          
     1  0  0.50      -514.6923   2.0000                                         
     2  0  0.50       -23.9615   2.0000                                         
     2  1  0.50        -9.0305   4.0000                                         
     3  2  1.50        -9.5241   0.0000                                         
   Description                                                                  
     l       E           TYP  RCUT    TYP  RCUT                                 
     0    -23.9615318     23  1.200                                             
     0     -9.5240782     23  1.200                                             
     1     -9.0304911     23  1.520                                             
     1      8.1634956     23  1.520                                             
     2     -9.5240782      7  1.500                                             
  local pseudopotential read in
  partial core-charges read in
  partial kinetic energy density read in
  kinetic energy density of atom read in
  atomic valenz-charges read in
  non local Contribution for L=           0  read in
    real space projection operators read in
  non local Contribution for L=           0  read in
    real space projection operators read in
  non local Contribution for L=           1  read in
    real space projection operators read in
  non local Contribution for L=           1  read in
    real space projection operators read in
    PAW grid and wavefunctions read in

   number of l-projection  operators is LMAX  =           4
   number of lm-projection operators is LMMAX =           8

 POTCAR:    PAW_PBE Si 05Jan2001                  
   VRHFIN =Si: s2p2                                                             
   LEXCH  = PE                                                                  
   EATOM  =   103.0669 eV,    7.5752 Ry                                         
                                                                                
   TITEL  = PAW_PBE Si 05Jan2001                                                
   LULTRA =        F    use ultrasoft PP ?                                      
   IUNSCR =        1    unscreen: 0-lin 1-nonlin 2-no                           
   RPACOR =    1.500    partial core radius                                     
   POMASS =   28.085; ZVAL   =    4.000    mass and valenz                      
   RCORE  =    1.900    outmost cutoff radius                                   
   RWIGS  =    2.480; RWIGS  =    1.312    wigner-seitz radius (au A)           
   ENMAX  =  245.345; ENMIN  =  184.009 eV                                      
   ICORE  =        2    local potential                                         
   LCOR   =        T    correct aug charges                                     
   LPAW   =        T    paw PP                                                  
   EAUG   =  322.069                                                            
   DEXC   =    0.000                                                            
   RMAX   =    1.950    core radius for proj-oper                               
   RAUG   =    1.300    factor for augmentation sphere                          
   RDEP   =    1.993    radius for radial grids                                 
   RDEPT  =    1.837    core radius for aug-charge                              
                                                                                
   Atomic configuration                                                         
    6 entries                                                                   
     n  l   j            E        occ.                                          
     1  0  0.50     -1785.8828   2.0000                                         
     2  0  0.50      -139.4969   2.0000                                         
     2  1  1.50       -95.5546   6.0000                                         
     3  0  0.50       -10.8127   2.0000                                         
     3  1  0.50        -4.0811   2.0000                                         
     3  2  1.50        -4.0817   0.0000                                         
   Description                                                                  
     l       E           TYP  RCUT    TYP  RCUT                                 
     0    -10.8127223     23  1.900                                             
     0     -7.6451159     23  1.900                                             
     1     -4.0811372     23  1.900                                             
     1      2.4879257     23  1.900                                             
     2     -4.0817478      7  1.900                                             
  local pseudopotential read in
  partial core-charges read in
  partial kinetic energy density read in
  atomic valenz-charges read in
  non local Contribution for L=           0  read in
    real space projection operators read in
  non local Contribution for L=           0  read in
    real space projection operators read in
  non local Contribution for L=           1  read in
    real space projection operators read in
  non local Contribution for L=           1  read in
    real space projection operators read in
    PAW grid and wavefunctions read in

   number of l-projection  operators is LMAX  =           4
   number of lm-projection operators is LMMAX =           8

 POTCAR:    PAW_PBE W 08Apr2002                   
   VRHFIN =W : 6s5d                                                             
   LEXCH  = PE                                                                  
   EATOM  =   204.6103 eV,   15.0384 Ry                                         
                                                                                
   TITEL  = PAW_PBE W 08Apr2002                                                 
   LULTRA =        F    use ultrasoft PP ?                                      
   IUNSCR =        1    unscreen: 0-lin 1-nonlin 2-no                           
   RPACOR =    2.330    partial core radius                                     
   POMASS =  183.850; ZVAL   =    6.000    mass and valenz                      
   RCORE  =    2.750    outmost cutoff radius                                   
   RWIGS  =    2.750; RWIGS  =    1.455    wigner-seitz radius (au A)           
   ENMAX  =  223.057; ENMIN  =  167.293 eV                                      
   RCLOC  =    2.147    cutoff for local pot                                    
   LCOR   =        T    correct aug charges                                     
   LPAW   =        T    paw PP                                                  
   EAUG   =  373.438                                                            
   DEXC   =    0.000                                                            
   RMAX   =    2.801    core radius for proj-oper                               
   RAUG   =    1.300    factor for augmentation sphere                          
   RDEP   =    2.886    radius for radial grids                                 
   RDEPT  =    2.230    core radius for aug-charge                              
                                                                                
   Atomic configuration                                                         
   16 entries                                                                   
     n  l   j            E        occ.                                          
     1  0  0.50    -69465.5836   2.0000                                         
     2  0  0.50    -11986.2642   2.0000                                         
     2  1  1.50    -10479.8616   6.0000                                         
     3  0  0.50     -2759.0758   2.0000                                         
     3  1  1.50     -2313.1857   6.0000                                         
     3  2  2.50     -1801.1185  10.0000                                         
     4  0  0.50      -567.6791   2.0000                                         
     4  1  1.50      -421.4694   6.0000                                         
     4  2  2.50      -236.3473  10.0000                                         
     4  3  3.50       -31.2666  14.0000                                         
     5  0  0.50       -77.1085   2.0000                                         
     5  1  1.50       -41.3856   6.0000                                         
     5  2  2.50        -3.3185   5.0000                                         
     6  0  0.50        -5.1438   1.0000                                         
     6  1  0.50        -3.8096   0.0000                                         
     5  3  2.50        -1.3606   0.0000                                         
   Description                                                                  
     l       E           TYP  RCUT    TYP  RCUT                                 
     2     -3.3185288     23  2.500                                             
     2     -1.5965414     23  2.500                                             
     0     -5.1438054     23  2.500                                             
     0      4.9117504     23  2.500                                             
     1      2.7211652     23  2.750                                             
     1     27.2116520     23  2.750                                             
  local pseudopotential read in
  partial core-charges read in
  partial kinetic energy density read in
  atomic valenz-charges read in
  non local Contribution for L=           2  read in
    real space projection operators read in
  non local Contribution for L=           2  read in
    real space projection operators read in
  non local Contribution for L=           0  read in
    real space projection operators read in
  non local Contribution for L=           0  read in
    real space projection operators read in
  non local Contribution for L=           1  read in
    real space projection operators read in
  non local Contribution for L=           1  read in
    real space projection operators read in
    PAW grid and wavefunctions read in

   number of l-projection  operators is LMAX  =           6
   number of lm-projection operators is LMMAX =          18

 Optimization of the real space projectors (new method)

 maximal supplied QI-value         = 25.13
 optimisation between [QCUT,QGAM] = [ 11.31, 22.87] = [ 35.82,146.48] Ry 
 Optimized for a Real-space Cutoff    1.00 Angstroem

   l    n(q)    QCUT    max X(q) W(low)/X(q) W(high)/X(q)  e(spline) 
   0      7    11.310   115.676    0.43E-03    0.13E-02    0.19E-06
   0      7    11.310    87.132    0.43E-03    0.13E-02    0.18E-06
   1      6    11.310     4.429    0.42E-03    0.74E-03    0.11E-06
   1      6    11.310     2.733    0.34E-03    0.55E-03    0.92E-07
 Optimization of the real space projectors (new method)

 maximal supplied QI-value         = 34.20
 optimisation between [QCUT,QGAM] = [ 11.29, 22.57] = [ 35.68,142.71] Ry 
 Optimized for a Real-space Cutoff    1.16 Angstroem

   l    n(q)    QCUT    max X(q) W(low)/X(q) W(high)/X(q)  e(spline) 
   0      8    11.287    19.460    0.40E-03    0.73E-03    0.16E-06
   0      8    11.287    12.209    0.38E-03    0.70E-03    0.15E-06
   1      7    11.287     4.655    0.22E-03    0.25E-04    0.22E-06
 Optimization of the real space projectors (new method)

 maximal supplied QI-value         = 24.76
 optimisation between [QCUT,QGAM] = [ 11.39, 22.77] = [ 36.31,145.25] Ry 
 Optimized for a Real-space Cutoff    1.00 Angstroem

   l    n(q)    QCUT    max X(q) W(low)/X(q) W(high)/X(q)  e(spline) 
   0      7    11.387    20.381    0.39E-03    0.13E-02    0.15E-06
   0      7    11.387    15.268    0.42E-03    0.14E-02    0.17E-06
   1      6    11.387     5.964    0.41E-03    0.11E-02    0.17E-06
   1      6    11.387     5.382    0.39E-03    0.87E-03    0.15E-06
 Optimization of the real space projectors (new method)

 maximal supplied QI-value         = 19.84
 optimisation between [QCUT,QGAM] = [ 11.31, 22.82] = [ 35.82,145.81] Ry 
 Optimized for a Real-space Cutoff    1.16 Angstroem

   l    n(q)    QCUT    max X(q) W(low)/X(q) W(high)/X(q)  e(spline) 
   0      8    11.310   159.560    0.27E-03    0.30E-03    0.39E-07
   0      8    11.310   115.863    0.27E-03    0.30E-03    0.38E-07
   1      7    11.310    88.339    0.28E-03    0.28E-03    0.77E-07
   1      7    11.310    48.592    0.27E-03    0.27E-03    0.74E-07
 Optimization of the real space projectors (new method)

 maximal supplied QI-value         = 13.61
 optimisation between [QCUT,QGAM] = [ 11.43, 22.86] = [ 36.58,146.31] Ry 
 Optimized for a Real-space Cutoff    1.56 Angstroem

   l    n(q)    QCUT    max X(q) W(low)/X(q) W(high)/X(q)  e(spline) 
   2     10    11.429   130.855    0.22E-03    0.64E-03    0.11E-05
   2     10    11.429   114.007    0.22E-03    0.64E-03    0.11E-05
   0     11    11.429    84.709    0.39E-04    0.67E-04    0.23E-06
   0     11    11.429    49.163    0.35E-04    0.62E-04    0.21E-06
   1     10    11.429    15.765    0.84E-04    0.15E-03    0.24E-06
   1     10    11.429    10.638    0.58E-04    0.12E-03    0.19E-06

 ----------------------------------------------------------------------------- 
|                                                                             |
|  ADVICE TO THIS USER RUNNING 'VASP/VAMP'   (HEAR YOUR MASTER'S VOICE ...):  |
|                                                                             |
|      You enforced a specific xc-type in the INCAR file,                     |
|      a different type was found on the POTCAR file                          |
|          I HOPE YOU KNOW, WHAT YOU ARE  DOING                               |
|                                                                             |
 ----------------------------------------------------------------------------- 

  PAW_PBE C 08Apr2002                   :
 energy of atom  1       EATOM= -147.1560
 kinetic energy error for atom=    0.0076 (will be added to EATOM!!)
  PAW_PBE H 15Jun2001                   :
 energy of atom  2       EATOM=  -12.4884
 kinetic energy error for atom=    0.0020 (will be added to EATOM!!)
  PAW_PBE O 08Apr2002                   :
 energy of atom  3       EATOM= -432.3788
 kinetic energy error for atom=    0.0224 (will be added to EATOM!!)
  PAW_PBE Si 05Jan2001                  :
 energy of atom  4       EATOM= -103.0669
 kinetic energy error for atom=    0.0006 (will be added to EATOM!!)
  PAW_PBE W 08Apr2002                   :
 energy of atom  5       EATOM= -204.6103
 kinetic energy error for atom=    0.0017 (will be added to EATOM!!)


 POSCAR:  C  H  O Si  W                          
  positions in direct lattice
  velocities in cartesian coordinates
 exchange correlation table for  LEXCH =        9
   RHO(1)=    0.500       N(1)  =     2000
   RHO(2)=  100.500       N(2)  =     4000

 VTST: version 3.2, (02/03/18)

 CHAIN: initializing optimizer
 
 OPT: Using VASP QUASI-newton optimizer
 CHAIN: Read ICHAIN            0

 POSCAR:  C  H  O Si  W                          
  positions in direct lattice
  velocities in cartesian coordinates



--------------------------------------------------------------------------------------------------------


 ion  position               nearest neighbor table
   1  0.551  0.540  0.798-  47 1.09  48 1.10   2 1.35
   2  0.546  0.558  0.750-  50 1.10   1 1.35 270 2.10
   3  0.760  0.104  0.651- 125 0.97
   4  0.926  0.279  0.356-  73 0.98
   5  0.793  0.207  0.373- 108 0.97
   6  0.975  0.944  0.325- 117 0.97
   7  0.626  0.963  0.375- 119 0.98
   8  0.821  0.995  0.369- 137 0.97
   9  0.750  0.141  0.458- 175 0.98
  10  0.915  0.249  0.509- 180 0.97
  11  0.583  0.304  0.306- 185 0.97
  12  0.891  0.335  0.616-  91 0.98
  13  0.589  0.359  0.615- 136 0.97
  14  0.593  0.871  0.578- 178 0.99
  15  0.034  0.338  0.652- 184 0.97
  16  0.935  0.420  0.454- 173 0.98
  17  0.746  0.530  0.422-  87 1.00
  18  0.798  0.382  0.635- 165 0.97
  19  0.591  0.569  0.378-  99 0.99
  20  0.718  0.646  0.383- 122 0.99
  21  0.841  0.542  0.420- 128 0.98
  22  0.005  0.604  0.358- 133 0.97
  23  0.828  0.712  0.468- 174 0.99
  24  0.876  0.599  0.722-  53 0.97
  25  0.520  0.986  0.422- 135 0.99
  26  0.223  0.980  0.393- 176 1.00
  27  0.216  0.238  0.319- 191 0.99
  28  0.158  0.330  0.279- 182 0.97
  29  0.342  0.156  0.331- 183 0.98
  30  0.223  0.046  0.323- 190 0.97
  31  0.511  0.826  0.547- 193 0.97
  32  0.372  0.236  0.647-  78 0.97
  33  0.244  0.093  0.598- 129 0.98
  34  0.315  0.487  0.442-  52 0.99
  35  0.409  0.439  0.406- 141 0.98
  36  0.398  0.793  0.389- 179 0.97
  37  0.244  0.655  0.294- 187 0.97
  38  0.312  0.418  0.369- 188 0.98
  39  0.405  0.584  0.339- 189 0.97
  40  0.139  0.488  0.352- 181 0.98
  41  0.593  0.698  0.352-  82 0.97
  42  0.469  0.861  0.444- 192 0.99
  43  0.122  0.323  0.612- 101 0.97
  44  0.072  0.666  0.646- 132 0.97
  45  0.240  0.387  0.683- 177 0.97
  46  0.246  0.816  0.669- 186 0.97
  47  0.535  0.488  0.813-   1 1.09
  48  0.573  0.577  0.825-   1 1.10
  49  0.568  0.467  0.697- 270 1.71
  50  0.566  0.609  0.736-   2 1.10
  51  0.369  0.648  0.439- 224 1.66 259 1.68
  52  0.347  0.504  0.420-  34 0.99 259 1.67
  53  0.861  0.566  0.697-  24 0.97 230 1.64
  54  0.349  0.959  0.530- 235 1.68 268 1.69
  55  0.033  0.933  0.529- 250 1.63 261 1.66
  56  0.636  0.079  0.489- 228 1.60 217 1.65
  57  0.069  0.052  0.395- 216 1.64 208 1.65
  58  0.452  0.130  0.421- 233 1.65 214 1.65
  59  0.806  0.214  0.483- 232 1.67 229 1.69
  60  0.973  0.182  0.599- 210 1.63 240 1.65
  61  0.275  0.299  0.449- 256 1.65 266 1.66
  62  0.556  0.775  0.442- 237 1.51 264 1.66
  63  0.392  0.973  0.619- 254 1.65 268 1.66
  64  0.178  0.350  0.405- 256 1.66 231 1.67
  65  0.867  0.684  0.637- 234 1.64 230 1.65
  66  0.866  0.967  0.467- 226 1.60 241 1.65
  67  0.301  0.761  0.458- 224 1.65 238 1.67
  68  0.422  0.261  0.380- 233 1.67 253 1.67
  69  0.811  0.465  0.520- 260 1.63 207 1.64
  70  0.984  0.073  0.521- 250 1.68 210 1.69
  71  0.511  0.462  0.628- 269 1.65 270 1.97
  72  0.035  0.920  0.429- 261 1.64 208 1.65
  73  0.963  0.303  0.351-   4 0.98 209 1.65
  74  0.070  0.336  0.376- 209 1.64 231 1.65
  75  0.208  0.729  0.395- 238 1.66 248 1.67
  76  0.039  0.419  0.499- 263 1.64 236 1.65
  77  0.240  0.286  0.588- 244 1.63 221 1.63
  78  0.398  0.194  0.645-  32 0.97 215 1.64
  79  0.455  0.564  0.580- 246 1.67 269 1.68
  80  0.910  0.749  0.557- 234 1.64 213 1.65
  81  0.869  0.108  0.442- 241 1.64 229 1.65
  82  0.573  0.667  0.376-  41 0.97 237 1.68
  83  0.142  0.159  0.376- 262 1.65 216 1.65
  84  0.351  0.765  0.607- 206 1.62 247 1.64
  85  0.911  0.845  0.483- 226 1.62 213 1.66
  86  0.061  0.537  0.442- 263 1.66 205 1.67
  87  0.708  0.555  0.420-  17 1.00 219 1.67
  88  0.075  0.817  0.483- 261 1.50 243 1.65
  89  0.700  0.828  0.433- 218 1.53 251 1.65
  90  0.730  0.049  0.543- 217 1.64 252 1.64
  91  0.919  0.302  0.632-  12 0.98 240 1.63
  92  0.735  0.853  0.613- 225 1.66 222 1.68
  93  0.625  0.527  0.486- 227 1.58 219 1.68
  94  0.557  0.630  0.467- 237 1.52 227 1.63
  95  0.425  0.247  0.555- 215 1.68 258 1.68
  96  0.978  0.728  0.477- 243 1.65 213 1.65
  97  0.654  0.594  0.633- 265 1.64 211 1.66
  98  0.397  0.746  0.515- 206 1.66 224 1.66
  99  0.603  0.518  0.386-  19 0.99 219 1.65
 100  0.720  0.631  0.557- 249 1.63 265 1.64
 101  0.147  0.364  0.620-  43 0.97 221 1.64
 102  0.066  0.549  0.542- 263 1.63 267 1.64
 103  0.819  0.885  0.537- 226 1.65 225 1.67
 104  0.828  0.355  0.452- 232 1.65 207 1.65
 105  0.527  0.299  0.533- 258 1.62 239 1.63
 106  0.737  0.499  0.596- 265 1.65 260 1.66
 107  0.557  0.172  0.395- 245 1.59 214 1.64
 108  0.806  0.256  0.383-   5 0.97 232 1.67
 109  0.237  0.953  0.508- 235 1.58 220 1.67
 110  0.693  0.776  0.542- 249 1.63 222 1.64
 111  0.924  0.950  0.553- 250 1.65 226 1.65
 112  0.526  0.318  0.399- 245 1.45 253 1.66
 113  0.469  0.991  0.546- 254 1.69 255 1.70
 114  0.838  0.095  0.540- 229 1.66 252 1.66
 115  0.538  0.116  0.486- 228 1.61 214 1.67
 116  0.350  0.187  0.440- 266 1.63 233 1.65
 117  0.012  0.962  0.335-   6 0.97 208 1.65
 118  0.458  0.587  0.674- 246 1.67 270 1.95
 119  0.655  0.925  0.379-   7 0.98 218 1.66
 120  0.076  0.686  0.436- 205 1.65 243 1.66
 121  0.452  0.405  0.552- 269 1.67 258 1.70
 122  0.719  0.700  0.380-  20 0.99 251 1.65
 123  0.451  0.705  0.601- 246 1.63 206 1.63
 124  0.753  0.709  0.476- 249 1.63 251 1.69
 125  0.779  0.121  0.621-   3 0.97 252 1.64
 126  0.993  0.308  0.448- 236 1.66 209 1.68
 127  0.534  0.508  0.531- 269 1.64 227 1.65
 128  0.817  0.499  0.423-  21 0.98 207 1.69
 129  0.236  0.145  0.605-  33 0.98 244 1.62
 130  0.204  0.831  0.471- 220 1.50 238 1.63
 131  0.240  0.559  0.523- 223 1.65 212 1.66
 132  0.061  0.625  0.624-  44 0.97 267 1.63
 133  0.046  0.602  0.354-  22 0.97 205 1.65
 134  0.801  0.979  0.606- 225 1.66 252 1.69
 135  0.538  0.028  0.405-  25 0.99 214 1.66
 136  0.606  0.313  0.605-  13 0.97 239 1.64
 137  0.862  0.004  0.369-   8 0.97 241 1.66
 138  0.095  0.149  0.467- 242 1.62 216 1.65
 139  0.171  0.204  0.531- 242 1.61 244 1.63
 140  0.641  0.704  0.455- 237 1.65 251 1.66
 141  0.437  0.410  0.386-  35 0.98 253 1.66
 142  0.574  0.059  0.571- 255 1.62 228 1.65
 143  0.151  0.593  0.389- 248 1.68 205 1.68
 144  0.268  0.602  0.392- 259 1.65 248 1.67
 145  0.440  0.322  0.470- 258 1.64 253 1.69
 146  0.238  0.159  0.430- 262 1.65 266 1.67
 147  0.073  0.150  0.563- 242 1.64 210 1.64
 148  0.845  0.544  0.600- 230 1.66 260 1.66
 149  0.621  0.280  0.411- 257 1.65 245 1.66
 150  0.603  0.892  0.467- 264 1.29 218 1.67
 151  0.031  0.195  0.389- 209 1.66 216 1.66
 152  0.608  0.196  0.547- 228 1.62 239 1.64
 153  0.133  0.938  0.479- 261 1.65 220 1.66
 154  0.080  0.280  0.512- 236 1.64 242 1.65
 155  0.373  0.105  0.568- 268 1.63 215 1.69
 156  0.067  0.697  0.536- 243 1.63 267 1.63
 157  0.666  0.415  0.430- 219 1.65 257 1.65
 158  0.799  0.730  0.564- 249 1.61 234 1.63
 159  0.704  0.957  0.470- 217 1.65 218 1.66
 160  0.598  0.634  0.553- 227 1.63 211 1.63
 161  0.723  0.294  0.452- 232 1.63 257 1.64
 162  0.978  0.314  0.547- 236 1.64 240 1.67
 163  0.158  0.630  0.571- 223 1.63 267 1.65
 164  0.633  0.327  0.508- 239 1.63 257 1.65
 165  0.820  0.396  0.606-  18 0.97 260 1.65
 166  0.959  0.027  0.417- 241 1.64 208 1.65
 167  0.282  0.195  0.519- 266 1.63 244 1.65
 168  0.249  0.443  0.461- 212 1.66 256 1.71
 169  0.273  0.850  0.568- 235 1.64 247 1.65
 170  0.204  0.686  0.487- 223 1.63 238 1.66
 171  0.147  0.476  0.493- 212 1.63 263 1.65
 172  0.225  0.423  0.557- 212 1.61 221 1.64
 173  0.911  0.453  0.474-  16 0.98 207 1.65
 174  0.870  0.705  0.464-  23 0.99 213 1.65
 175  0.738  0.093  0.445-   9 0.98 217 1.66
 176  0.222  0.930  0.408-  26 1.00 220 1.64
 177  0.252  0.402  0.650-  45 0.97 221 1.65
 178  0.630  0.883  0.593-  14 0.99 222 1.62
 179  0.410  0.789  0.423-  36 0.97 224 1.68
 180  0.918  0.196  0.508-  10 0.97 229 1.65
 181  0.133  0.444  0.332-  40 0.98 231 1.65
 182  0.155  0.304  0.311-  28 0.97 231 1.69
 183  0.373  0.131  0.348-  29 0.98 233 1.66
 184  0.035  0.292  0.633-  15 0.97 240 1.66
 185  0.573  0.257  0.320-  11 0.97 245 1.66
 186  0.245  0.771  0.649-  46 0.97 247 1.64
 187  0.207  0.648  0.310-  37 0.97 248 1.65
 188  0.275  0.392  0.367-  38 0.98 256 1.66
 189  0.365  0.598  0.342-  39 0.97 259 1.67
 190  0.226  0.056  0.358-  30 0.97 262 1.69
 191  0.241  0.196  0.329-  27 0.99 262 1.66
 192  0.501  0.892  0.455-  42 0.99 264 1.60
 193  0.550  0.828  0.534-  31 0.97 264 1.67
 194  0.545  0.646  0.635- 211 1.65 246 1.67
 195  0.478  0.123  0.596- 255 1.65 215 1.65
 196  0.263  0.694  0.568- 247 1.65 223 1.65
 197  0.443  0.847  0.581- 254 1.66 206 1.68
 198  0.766  0.617  0.649- 265 1.65 230 1.66
 199  0.845  0.832  0.623- 234 1.66 225 1.68
 200  0.640  0.739  0.621- 211 1.67 222 1.71
 201  0.008  0.033  0.603- 210 1.69 250 1.69
 202  0.285  0.002  0.593- 268 1.70 235 1.70
 203  0.503  0.972  0.629- 254 1.69 255 1.70
 204  0.464  0.435  0.732- 270 1.71
 205  0.083  0.606  0.406- 133 1.65 120 1.65  86 1.67 143 1.68 263 3.13
 206  0.409  0.766  0.575-  84 1.62 123 1.63  98 1.66 197 1.68 247 3.05
 207  0.842  0.441  0.468-  69 1.64 104 1.65 173 1.65 128 1.69
 208  0.017  0.990  0.394-  57 1.65 166 1.65  72 1.65 117 1.65 261 3.11 216 3.13
 209  0.015  0.284  0.391-  74 1.64  73 1.65 151 1.66 126 1.68 236 3.11 216 3.11
 210  0.009  0.115  0.573-  60 1.63 147 1.64  70 1.69 201 1.69 250 2.39 242 3.05 240 3.07
 211  0.610  0.657  0.611- 160 1.63 194 1.65  97 1.66 200 1.67 265 2.87
 212  0.214  0.476  0.510- 172 1.61 171 1.63 168 1.66 131 1.66 223 3.10 256 3.14
 213  0.915  0.756  0.496-  96 1.65 174 1.65  80 1.65  85 1.66 226 2.99 234 3.03
 214  0.521  0.110  0.426- 107 1.64  58 1.65 135 1.66 115 1.67 245 3.08 228 3.12
 215  0.419  0.170  0.589-  78 1.64 195 1.65  95 1.68 155 1.69 268 3.13 255 3.14
 216  0.083  0.139  0.407-  57 1.64 138 1.65  83 1.65 151 1.66 209 3.11 208 3.13 262 3.14
 217  0.702  0.045  0.487-  90 1.64 159 1.65  56 1.65 175 1.66 228 3.09 218 3.10 252 3.15
 218  0.665  0.898  0.437-  89 1.53 159 1.66 119 1.66 150 1.67 264 2.83 251 3.06 217 3.10
 219  0.650  0.504  0.430-  99 1.65 157 1.65  87 1.67  93 1.68 227 3.07
 220  0.198  0.912  0.464- 130 1.50 176 1.64 153 1.66 109 1.67 238 3.01 235 3.06 261 3.07
 221  0.214  0.366  0.604-  77 1.63 172 1.64 101 1.64 177 1.65
 222  0.674  0.814  0.595- 178 1.62 110 1.64  92 1.68 200 1.71 249 2.90
 223  0.217  0.642  0.538- 170 1.63 163 1.63 196 1.65 131 1.65 238 3.09 212 3.10 267 3.12
 224  0.369  0.735  0.459-  67 1.65  98 1.66  51 1.66 179 1.68
 225  0.797  0.889  0.596- 134 1.66  92 1.66 103 1.67 199 1.68 234 2.86 226 2.99 252 3.15
 226  0.880  0.912  0.512-  66 1.60  85 1.62 103 1.65 111 1.65 213 2.99 225 2.99 250 3.05 241 3.13

 227  0.576  0.574  0.512-  93 1.58 160 1.63  94 1.63 127 1.65 237 3.00 219 3.07
 228  0.590  0.116  0.525-  56 1.60 115 1.61 152 1.62 142 1.65 255 2.85 217 3.09 239 3.12 214 3.12

 229  0.858  0.152  0.495- 180 1.65  81 1.65 114 1.66  59 1.69 241 3.07 232 3.15
 230  0.836  0.604  0.646-  53 1.64  65 1.65 148 1.66 198 1.66 265 2.93 234 3.01 260 3.01
 231  0.134  0.360  0.357- 181 1.65  74 1.65  64 1.67 182 1.69 256 3.11
 232  0.791  0.280  0.442- 161 1.63 104 1.65 108 1.67  59 1.67 229 3.15
 233  0.399  0.177  0.396-  58 1.65 116 1.65 183 1.66  68 1.67 253 3.07
 234  0.856  0.750  0.597- 158 1.63  80 1.64  65 1.64 199 1.66 225 2.86 230 3.01 213 3.03
 235  0.283  0.935  0.549- 109 1.58 169 1.64  54 1.68 202 1.70 268 2.38 220 3.06
 236  0.023  0.330  0.502- 154 1.64 162 1.64  76 1.65 126 1.66 240 3.11 209 3.11 242 3.13
 237  0.575  0.695  0.436-  62 1.51  94 1.52 140 1.65  82 1.68 227 3.00 264 3.06 251 3.10
 238  0.230  0.753  0.452- 130 1.63 170 1.66  75 1.66  67 1.67 248 2.97 220 3.01 223 3.09
 239  0.594  0.284  0.548- 164 1.63 105 1.63 152 1.64 136 1.64 228 3.12
 240  0.975  0.272  0.603-  91 1.63  60 1.65 184 1.66 162 1.67 210 3.07 236 3.11
 241  0.889  0.025  0.424-  81 1.64 166 1.64  66 1.65 137 1.66 229 3.07 226 3.13
 242  0.105  0.195  0.518- 139 1.61 138 1.62 147 1.64 154 1.65 210 3.05 236 3.13
 243  0.048  0.733  0.483- 156 1.63  96 1.65  88 1.65 120 1.66 261 3.05 267 3.15
 244  0.232  0.206  0.561- 129 1.62  77 1.63 139 1.63 167 1.65 266 3.02
 245  0.561  0.258  0.381- 112 1.45 107 1.59 149 1.66 185 1.66 253 2.87 214 3.08
 246  0.477  0.627  0.621- 123 1.63 118 1.67  79 1.67 194 1.67 269 2.96 270 3.11
 247  0.282  0.771  0.597- 186 1.64  84 1.64 196 1.65 169 1.65 206 3.05
 248  0.209  0.643  0.372- 187 1.65 144 1.67  75 1.67 143 1.68 238 2.97
 249  0.740  0.711  0.536- 158 1.61 100 1.63 124 1.63 110 1.63 222 2.90 251 2.91 265 3.07
 250  0.987  0.991  0.550-  55 1.63 111 1.65  70 1.68 201 1.69 210 2.39 226 3.05
 251  0.703  0.737  0.434-  89 1.65 122 1.65 140 1.66 124 1.69 249 2.91 218 3.06 237 3.10
 252  0.788  0.059  0.577-  90 1.64 125 1.64 114 1.66 134 1.69 225 3.15 217 3.15
 253  0.456  0.328  0.409- 141 1.66 112 1.66  68 1.67 145 1.69 245 2.87 233 3.07
 254  0.450  0.936  0.594-  63 1.65 197 1.66 113 1.69 203 1.69 255 2.36 268 2.74
 255  0.509  0.041  0.586- 142 1.62 195 1.65 113 1.70 203 1.70 254 2.36 228 2.85 215 3.14
 256  0.244  0.370  0.421-  61 1.65  64 1.66 188 1.66 168 1.71 231 3.11 212 3.14
 257  0.659  0.330  0.450- 161 1.64 149 1.65 157 1.65 164 1.65
 258  0.460  0.318  0.529- 105 1.62 145 1.64  95 1.68 121 1.70
 259  0.337  0.590  0.399- 144 1.65 189 1.67  52 1.67  51 1.68
 260  0.804  0.476  0.580-  69 1.63 165 1.65 148 1.66 106 1.66 265 2.91 230 3.01
 261  0.069  0.899  0.481-  88 1.50  72 1.64 153 1.65  55 1.66 243 3.05 220 3.07 208 3.11
 262  0.212  0.144  0.374-  83 1.65 146 1.65 191 1.66 190 1.69 266 3.12 216 3.14
 263  0.078  0.494  0.495- 102 1.63  76 1.64 171 1.65  86 1.66 267 3.10 205 3.13
 264  0.558  0.852  0.475- 150 1.29 192 1.60  62 1.66 193 1.67 218 2.83 237 3.06
 265  0.719  0.584  0.610-  97 1.64 100 1.64 198 1.65 106 1.65 211 2.87 260 2.91 230 2.93 249 3.07

 266  0.287  0.210  0.459- 167 1.63 116 1.63  61 1.66 146 1.67 244 3.02 262 3.12
 267  0.088  0.626  0.568- 156 1.63 132 1.63 102 1.64 163 1.65 263 3.10 223 3.12 243 3.15
 268  0.353  0.020  0.578- 155 1.63  63 1.66  54 1.69 202 1.70 235 2.38 254 2.74 215 3.13
 269  0.486  0.481  0.572- 127 1.64  71 1.65 121 1.67  79 1.68 246 2.96
 270  0.499  0.499  0.696-  49 1.71 204 1.71 118 1.95  71 1.97   2 2.10 246 3.11

  LATTYP: Found a simple orthorhombic cell.
 ALAT       =    18.1212369514
 B/A-ratio  =     1.2919258579
 C/A-ratio  =     1.4835282260
  
  Lattice vectors:
  
 A1 = (   0.0000000000, -18.1212369514,   0.0000000000)
 A2 = ( -23.4112945954,   0.0000000000,   0.0000000000)
 A3 = (   0.0000000000,   0.0000000000, -26.8833665073)


Analysis of symmetry for initial positions (statically):
=====================================================================
 Subroutine PRICEL returns:
 Original cell was already a primitive cell.
 

 Routine SETGRP: Setting up the symmetry group for a 
 simple orthorhombic supercell.


 Subroutine GETGRP returns: Found  1 space group operations
 (whereof  1 operations were pure point group operations)
 out of a pool of  8 trial point group operations.


The static configuration has the point symmetry C_1 .


Analysis of symmetry for dynamics (positions and initial velocities):
=====================================================================
 Subroutine PRICEL returns:
 Original cell was already a primitive cell.
 

 Routine SETGRP: Setting up the symmetry group for a 
 simple orthorhombic supercell.


 Subroutine GETGRP returns: Found  1 space group operations
 (whereof  1 operations were pure point group operations)
 out of a pool of  8 trial point group operations.


The dynamic configuration has the point symmetry C_1 .


Analysis of constrained symmetry for selective dynamics:
=====================================================================
 Subroutine PRICEL returns:
 Original cell was already a primitive cell.
 

 Routine SETGRP: Setting up the symmetry group for a 
 simple orthorhombic supercell.


 Subroutine GETGRP returns: Found  1 space group operations
 (whereof  1 operations were pure point group operations)
 out of a pool of  8 trial point group operations.


The constrained configuration has the point symmetry C_1 .


 Subroutine INISYM returns: Found  1 space group operations
 (whereof  1 operations are pure point group operations),
 and found     1 'primitive' translations



 KPOINTS: KPOINTS created by Atomic Simulation Env

Automatic generation of k-mesh.
Space group operators:
 irot       det(A)        alpha          n_x          n_y          n_z        tau_x        tau_y        tau_z
    1     1.000000     0.000000     1.000000     0.000000     0.000000     0.000000     0.000000     0.000000
 
 Subroutine IBZKPT returns following result:
 ===========================================
 
 Found      5 irreducible k-points:
 
 Following reciprocal coordinates:
            Coordinates               Weight
  0.000000  0.000000  0.000000      1.000000
  0.333333  0.000000  0.000000      2.000000
  0.000000  0.333333  0.000000      2.000000
  0.333333  0.333333  0.000000      2.000000
 -0.333333  0.333333  0.000000      2.000000
 
 Following cartesian coordinates:
            Coordinates               Weight
  0.000000  0.000000  0.000000      1.000000
  0.014238  0.000000  0.000000      2.000000
  0.000000  0.018395  0.000000      2.000000
  0.014238  0.018395  0.000000      2.000000
 -0.014238  0.018395  0.000000      2.000000
 


--------------------------------------------------------------------------------------------------------




 Dimension of arrays:
   k-points           NKPTS =      5   k-points in BZ     NKDIM =      5   number of bands    NBANDS=    760
   number of dos      NEDOS =    301   number of ions     NIONS =    270
   non local maximal  LDIM  =      6   non local SUM 2l+1 LMDIM =     18
   total plane-waves  NPLWV = ******
   max r-space proj   IRMAX =   2748   max aug-charges    IRDMAX=   9808
   dimension x,y,z NGX =   128 NGY =  100 NGZ =  150
   dimension x,y,z NGXF=   256 NGYF=  200 NGZF=  300
   support grid    NGXF=   256 NGYF=  200 NGZF=  300
   ions per type =               2  48 154  65   1
   NGX,Y,Z   is equivalent  to a cutoff of   9.09,  9.17,  9.28 a.u.
   NGXF,Y,Z  is equivalent  to a cutoff of  18.18, 18.35, 18.55 a.u.

 SYSTEM =  unknown system                          
 POSCAR =   C  H  O Si  W                          

 Startparameter for this run:
   NWRITE =      2    write-flag & timer
   PREC   = normal    normal or accurate (medium, high low for compatibility)
   ISTART =      0    job   : 0-new  1-cont  2-samecut
   ICHARG =      2    charge: 1-file 2-atom 10-const
   ISPIN  =      1    spin polarized calculation?
   LNONCOLLINEAR =      F non collinear calculations
   LSORBIT =      F    spin-orbit coupling
   INIWAV =      1    electr: 0-lowe 1-rand  2-diag
   LASPH  =      T    aspherical Exc in radial PAW
   METAGGA=      F    non-selfconsistent MetaGGA calc.

 Electronic Relaxation 1
   ENCUT  =  500.0 eV  36.75 Ry    6.06 a.u.  42.68 33.04 49.01*2*pi/ulx,y,z
   ENINI  =  500.0     initial cutoff
   ENAUG  =  644.9 eV  augmentation charge cutoff
   NELM   =     60;   NELMIN=  2; NELMDL=  0     # of ELM steps 
   EDIFF  = 0.1E-03   stopping-criterion for ELM
   LREAL  =      T    real-space projection
   NLSPLINE    = F    spline interpolate recip. space projectors
   LCOMPAT=      F    compatible to vasp.4.4
   GGA_COMPAT  = T    GGA compatible to vasp.4.4-vasp.4.6
   LMAXPAW     = -100 max onsite density
   LMAXMIX     =    2 max onsite mixed and CHGCAR
   VOSKOWN=      0    Vosko Wilk Nusair interpolation
   ROPT   =   -0.00050  -0.00050  -0.00050  -0.00050
   ROPT   =   -0.00050
 Ionic relaxation
   EDIFFG = -.5E-01   stopping-criterion for IOM
   NSW    =    150    number of steps for IOM
   NBLOCK =      1;   KBLOCK =    150    inner block; outer block 
   IBRION =      1    ionic relax: 0-MD 1-quasi-New 2-CG
   NFREE  =      0    steps in history (QN), initial steepest desc. (CG)
   ISIF   =      0    stress and relaxation
   IWAVPR =     11    prediction:  0-non 1-charg 2-wave 3-comb
   ISYM   =      2    0-nonsym 1-usesym 2-fastsym
   LCORR  =      T    Harris-Foulkes like correction to forces

   POTIM  = 0.5000    time-step for ionic-motion
   TEIN   =    0.0    initial temperature
   TEBEG  =    0.0;   TEEND  =   0.0 temperature during run
   SMASS  =  -3.00    Nose mass-parameter (am)
   estimated Nose-frequenzy (Omega)   =  0.10E-29 period in steps =****** mass=  -0.125E-25a.u.
   SCALEE = 1.0000    scale energy and forces
   NPACO  =    256;   APACO  = 16.0  distance and # of slots for P.C.
   PSTRESS=    0.0 pullay stress

  Mass of Ions in am
   POMASS =  12.01  1.00 16.00 28.09183.85
  Ionic Valenz
   ZVAL   =   4.00  1.00  6.00  4.00  6.00
  Atomic Wigner-Seitz radii
   RWIGS  =  -1.00 -1.00 -1.00 -1.00 -1.00
  virtual crystal weights 
   VCA    =   1.00  1.00  1.00  1.00  1.00
   NELECT =    1246.0000    total number of electrons
   NUPDOWN=      -1.0000    fix difference up-down

 DOS related values:
   EMIN   =  10.00;   EMAX   =-10.00  energy-range for DOS
   EFERMI =   0.00
   ISMEAR =     0;   SIGMA  =   0.20  broadening in eV -4-tet -1-fermi 0-gaus

 Electronic relaxation 2 (details)
   IALGO  =     68    algorithm
   LDIAG  =      T    sub-space diagonalisation (order eigenvalues)
   LSUBROT=      F    optimize rotation matrix (better conditioning)
   TURBO    =      0    0=normal 1=particle mesh
   IRESTART =      0    0=no restart 2=restart with 2 vectors
   NREBOOT  =      0    no. of reboots
   NMIN     =      0    reboot dimension
   EREF     =   0.00    reference energy to select bands
   IMIX   =      4    mixing-type and parameters
     AMIX     =   0.40;   BMIX     =  1.00
     AMIX_MAG =   1.60;   BMIX_MAG =  1.00
     AMIN     =   0.10
     WC   =   100.;   INIMIX=   1;  MIXPRE=   1;  MAXMIX= -45

 Intra band minimization:
   WEIMIN = 0.0010     energy-eigenvalue tresh-hold
   EBREAK =  0.33E-07  absolut break condition
   DEPER  =   0.30     relativ break condition  

   TIME   =   0.40     timestep for ELM

  volume/ion in A,a.u.               =      42.24       285.06
  Fermi-wavevector in a.u.,A,eV,Ry     =   0.782616  1.478929  8.333395  0.612487
  Thomas-Fermi vector in A             =   1.886376

 Write flags
   LWAVE        =      F    write WAVECAR
   LDOWNSAMPLE  =      F    k-point downsampling of WAVECAR
   LCHARG       =      F    write CHGCAR
   LVTOT        =      F    write LOCPOT, total local potential
   LVHAR        =      F    write LOCPOT, Hartree potential only
   LELF         =      F    write electronic localiz. function (ELF)
   LORBIT       =      0    0 simple, 1 ext, 2 COOP (PROOUT), +10 PAW based schemes


 Dipole corrections
   LMONO  =      F    monopole corrections only (constant potential shift)
   LDIPOL =      T    correct potential (dipole corrections)
   IDIPOL =      3    1-x, 2-y, 3-z, 4-all directions 
   EPSILON=  1.0000000 bulk dielectric constant

 Exchange correlation treatment:
   GGA     =    RP    GGA type
   LEXCH   =     9    internal setting for exchange type
   VOSKOWN=      0    Vosko Wilk Nusair interpolation
   LHFCALC =     F    Hartree Fock is set to
   LHFONE  =     F    Hartree Fock one center treatment
   AEXX    =    0.0000 exact exchange contribution

 Linear response parameters
   LEPSILON=     F    determine dielectric tensor
   LRPA    =     F    only Hartree local field effects (RPA)
   LNABLA  =     F    use nabla operator in PAW spheres
   LVEL    =     F    velocity operator in full k-point grid
   LINTERFAST=   F  fast interpolation
   KINTER  =     0    interpolate to denser k-point grid
   CSHIFT  =0.1000    complex shift for real part using Kramers Kronig
   OMEGAMAX=  -1.0    maximum frequency
   DEG_THRESHOLD= 0.2000000E-02 threshold for treating states as degnerate
   RTIME   =   -0.100 relaxation time in fs
  (WPLASMAI=    0.000 imaginary part of plasma frequency in eV, 0.658/RTIME)
   DFIELD  = 0.0000000 0.0000000 0.0000000 field for delta impulse in time

 Orbital magnetization related:
   ORBITALMAG=     F  switch on orbital magnetization
   LCHIMAG   =     F  perturbation theory with respect to B field
   DQ        =  0.001000  dq finite difference perturbation B field
   LLRAUG    =     F  two centre corrections for induced B field



--------------------------------------------------------------------------------------------------------


 quasi-Newton-method for relaxation of ions
   using selective dynamics as specified on POSCAR
 charge density and potential will be updated during run
 non-spin polarized calculation
 RMM-DIIS sequential band-by-band and
  variant of blocked Davidson during initial phase
 perform sub-space diagonalisation
    before iterative eigenvector-optimisation
 modified Broyden-mixing scheme, WC =      100.0
 initial mixing is a Kerker type mixing with AMIX =  0.4000 and BMIX =      1.0000
 Hartree-type preconditioning will be used
 using additional bands          137
 real space projection scheme for non local part
 use partial core corrections
 calculate Harris-corrections to forces   (improved forces if not selfconsistent)
 use gradient corrections 
 use of overlap-Matrix (Vanderbilt PP)
 Gauss-broadening in eV      SIGMA  =   0.20


--------------------------------------------------------------------------------------------------------


  energy-cutoff  :      500.00
  volume of cell :    11405.04
      direct lattice vectors                 reciprocal lattice vectors
    23.411294595  0.000000000  0.000000000     0.042714426  0.000000000  0.000000000
     0.000000000 18.121236951  0.000000000     0.000000000  0.055183871  0.000000000
     0.000000000  0.000000000 26.883366507     0.000000000  0.000000000  0.037197722

  length of vectors
    23.411294595 18.121236951 26.883366507     0.042714426  0.055183871  0.037197722



 k-points in units of 2pi/SCALE and weight: KPOINTS created by Atomic Simulation Env
   0.00000000  0.00000000  0.00000000       0.111
   0.01423814  0.00000000  0.00000000       0.222
   0.00000000  0.01839462  0.00000000       0.222
   0.01423814  0.01839462  0.00000000       0.222
  -0.01423814  0.01839462  0.00000000       0.222

 k-points in reciprocal lattice and weights: KPOINTS created by Atomic Simulation Env
   0.00000000  0.00000000  0.00000000       0.111
   0.33333333  0.00000000  0.00000000       0.222
   0.00000000  0.33333333  0.00000000       0.222
   0.33333333  0.33333333  0.00000000       0.222
  -0.33333333  0.33333333  0.00000000       0.222

 position of ions in fractional coordinates (direct lattice) 
   0.55128792  0.54036108  0.79819718
   0.54608620  0.55828779  0.74961277
   0.76035913  0.10382261  0.65090797
   0.92642768  0.27866896  0.35633493
   0.79333970  0.20727890  0.37345652
   0.97453911  0.94360860  0.32530279
   0.62573266  0.96347285  0.37523120
   0.82053840  0.99500666  0.36899263
   0.74999307  0.14117876  0.45803819
   0.91543525  0.24946330  0.50911481
   0.58349286  0.30426355  0.30592717
   0.89137539  0.33472746  0.61613485
   0.58928853  0.35893691  0.61533583
   0.59346951  0.87070058  0.57794945
   0.03371431  0.33772701  0.65218927
   0.93527051  0.41951423  0.45410146
   0.74613838  0.53031199  0.42248819
   0.79799643  0.38200245  0.63474510
   0.59110202  0.56868283  0.37803474
   0.71843379  0.64593279  0.38346059
   0.84115291  0.54242660  0.41959617
   0.00476455  0.60379815  0.35777830
   0.82835870  0.71235667  0.46794226
   0.87592197  0.59870376  0.72204766
   0.51999031  0.98556476  0.42170307
   0.22309457  0.98015484  0.39320502
   0.21637369  0.23785146  0.31923033
   0.15750105  0.32980623  0.27898292
   0.34154688  0.15558571  0.33077276
   0.22271586  0.04575893  0.32273843
   0.51101729  0.82628687  0.54665948
   0.37204245  0.23606958  0.64726726
   0.24357352  0.09314862  0.59847635
   0.31538097  0.48713646  0.44243467
   0.40895618  0.43873486  0.40569060
   0.39849950  0.79311361  0.38878680
   0.24420236  0.65543008  0.29432688
   0.31174138  0.41847571  0.36925764
   0.40547429  0.58427965  0.33881989
   0.13935762  0.48797365  0.35192946
   0.59326935  0.69798713  0.35239799
   0.46900683  0.86142747  0.44382838
   0.12157984  0.32310265  0.61167238
   0.07204171  0.66552975  0.64552301
   0.23966616  0.38723806  0.68285772
   0.24637334  0.81598572  0.66894348
   0.53466129  0.48843258  0.81294293
   0.57288814  0.57695147  0.82464200
   0.56794680  0.46660846  0.69686933
   0.56601543  0.60946831  0.73610705
   0.36894173  0.64835510  0.43900002
   0.34681565  0.50403387  0.42038813
   0.86075846  0.56598401  0.69678505
   0.34900564  0.95895973  0.53002687
   0.03344325  0.93253287  0.52853696
   0.63635548  0.07886855  0.48937667
   0.06864615  0.05226542  0.39511073
   0.45189954  0.12956232  0.42059728
   0.80588415  0.21365018  0.48316661
   0.97311168  0.18154026  0.59878206
   0.27476529  0.29917287  0.44851223
   0.55635417  0.77509129  0.44175101
   0.39188263  0.97325377  0.61920489
   0.17751724  0.34996845  0.40527312
   0.86665291  0.68403421  0.63730518
   0.86569601  0.96717693  0.46703846
   0.30104714  0.76093683  0.45792526
   0.42161095  0.26125222  0.37959630
   0.81128879  0.46537605  0.52019899
   0.98354018  0.07275002  0.52124468
   0.51092408  0.46179731  0.62797967
   0.03453641  0.91994776  0.42940526
   0.96303654  0.30319531  0.35125762
   0.06962669  0.33610577  0.37637178
   0.20829566  0.72864429  0.39536010
   0.03890126  0.41910192  0.49910875
   0.23975657  0.28589770  0.58785599
   0.39796327  0.19446544  0.64487874
   0.45455512  0.56377852  0.58024532
   0.90979864  0.74919678  0.55748466
   0.86912727  0.10804334  0.44227833
   0.57257679  0.66733185  0.37613173
   0.14242656  0.15912550  0.37597224
   0.35071165  0.76526922  0.60669606
   0.91099605  0.84504757  0.48317962
   0.06133801  0.53687171  0.44225348
   0.70833903  0.55516655  0.41995768
   0.07548726  0.81680680  0.48299416
   0.70046477  0.82755571  0.43263529
   0.73015381  0.04898062  0.54301454
   0.91894607  0.30202657  0.63209559
   0.73501674  0.85305338  0.61295651
   0.62512195  0.52739400  0.48637871
   0.55657330  0.62970304  0.46724942
   0.42514774  0.24742949  0.55533383
   0.97829009  0.72824363  0.47679564
   0.65426884  0.59402590  0.63337050
   0.39718107  0.74637239  0.51530397
   0.60269007  0.51766545  0.38567099
   0.71980746  0.63096526  0.55711654
   0.14673625  0.36397210  0.61994200
   0.06643048  0.54856630  0.54195755
   0.81889578  0.88463161  0.53666084
   0.82821553  0.35538514  0.45190334
   0.52733328  0.29869702  0.53264888
   0.73710911  0.49895218  0.59560355
   0.55743394  0.17243111  0.39490854
   0.80596408  0.25641257  0.38329286
   0.23744622  0.95325075  0.50791956
   0.69294663  0.77613847  0.54153203
   0.92384331  0.94975333  0.55297659
   0.52573722  0.31778112  0.39855594
   0.46864847  0.99054761  0.54595034
   0.83772939  0.09478638  0.53978123
   0.53790325  0.11641749  0.48623709
   0.35019344  0.18660873  0.43963639
   0.01176032  0.96241390  0.33524376
   0.45761160  0.58672603  0.67436669
   0.65496522  0.92539750  0.37922825
   0.07629334  0.68602626  0.43588102
   0.45231855  0.40500096  0.55240835
   0.71921944  0.70042085  0.37958300
   0.45111517  0.70485012  0.60088440
   0.75255106  0.70932458  0.47629548
   0.77858307  0.12110712  0.62070904
   0.99327462  0.30801347  0.44840298
   0.53398103  0.50781451  0.53148326
   0.81677759  0.49906173  0.42344221
   0.23578497  0.14512796  0.60533093
   0.20353331  0.83070132  0.47053363
   0.23998194  0.55871037  0.52284063
   0.06117993  0.62546747  0.62366772
   0.04607407  0.60234669  0.35417863
   0.80074999  0.97872726  0.60584259
   0.53799091  0.02769749  0.40450275
   0.60645477  0.31257845  0.60507135
   0.86154611  0.00408085  0.36920633
   0.09491131  0.14902284  0.46708233
   0.17139533  0.20411678  0.53094690
   0.64098865  0.70443872  0.45481558
   0.43678778  0.40976848  0.38641325
   0.57431467  0.05890114  0.57119432
   0.15143775  0.59340802  0.38895836
   0.26773979  0.60233753  0.39230630
   0.44025846  0.32219818  0.47032443
   0.23800967  0.15851113  0.42990119
   0.07275831  0.15023947  0.56257209
   0.84522585  0.54390982  0.59999103
   0.62117943  0.27993988  0.41090545
   0.60266699  0.89152667  0.46722346
   0.03138539  0.19528983  0.38899188
   0.60777354  0.19571170  0.54715340
   0.13279973  0.93835464  0.47948708
   0.08025182  0.28039162  0.51158962
   0.37251418  0.10507413  0.56808401
   0.06666347  0.69702156  0.53571711
   0.66648838  0.41538488  0.43001156
   0.79939685  0.72963059  0.56414987
   0.70383856  0.95720843  0.47018456
   0.59775422  0.63399141  0.55312129
   0.72284030  0.29368465  0.45166811
   0.97754810  0.31417201  0.54723706
   0.15843952  0.63000073  0.57060296
   0.63333384  0.32678308  0.50780070
   0.81990409  0.39608003  0.60560490
   0.95857820  0.02724304  0.41695300
   0.28202375  0.19507347  0.51865048
   0.24925755  0.44303289  0.46105570
   0.27339656  0.84965250  0.56785732
   0.20366815  0.68557317  0.48688872
   0.14712345  0.47606988  0.49254493
   0.22451361  0.42267057  0.55686608
   0.91141698  0.45274460  0.47371881
   0.86978818  0.70456011  0.46415352
   0.73812021  0.09283462  0.44522965
   0.22218344  0.92978119  0.40794682
   0.25166726  0.40157152  0.64976067
   0.63044942  0.88309867  0.59344203
   0.41022327  0.78906239  0.42343739
   0.91777135  0.19603829  0.50824515
   0.13254706  0.44353611  0.33227266
   0.15514768  0.30352326  0.31056042
   0.37300515  0.13090704  0.34795342
   0.03456549  0.29195812  0.63344018
   0.57268926  0.25686819  0.32009968
   0.24538474  0.77096944  0.64945059
   0.20737430  0.64840505  0.31036906
   0.27537441  0.39219130  0.36737583
   0.36535081  0.59758663  0.34222079
   0.22638085  0.05618082  0.35811888
   0.24120333  0.19607823  0.32934297
   0.50127293  0.89230162  0.45484168
   0.55003014  0.82763978  0.53432248
   0.54529823  0.64557640  0.63460980
   0.47848674  0.12250244  0.59599146
   0.26278728  0.69425717  0.56842143
   0.44258298  0.84742402  0.58147413
   0.76565127  0.61689888  0.64948148
   0.84479377  0.83168964  0.62302274
   0.64003097  0.73942463  0.62100581
   0.00815709  0.03342141  0.60300599
   0.28462146  0.00199437  0.59333818
   0.50324587  0.97215424  0.62854885
   0.46415782  0.43547809  0.73197892
   0.08322528  0.60642030  0.40641308
   0.40934510  0.76562617  0.57465151
   0.84176382  0.44145312  0.46783897
   0.01708949  0.99048204  0.39361135
   0.01470021  0.28419027  0.39108141
   0.00922666  0.11503906  0.57251689
   0.60980322  0.65738471  0.61075835
   0.21397632  0.47584456  0.50974260
   0.91506213  0.75556094  0.49625454
   0.52057854  0.11045563  0.42598659
   0.41855694  0.16971832  0.58900853
   0.08345253  0.13917208  0.40698087
   0.70189793  0.04484625  0.48732303
   0.66505935  0.89803746  0.43747644
   0.65009874  0.50402706  0.43015089
   0.19846065  0.91248223  0.46399069
   0.21426684  0.36646456  0.60360931
   0.67369988  0.81354576  0.59463046
   0.21677720  0.64160290  0.53849320
   0.36878912  0.73512773  0.45920930
   0.79746867  0.88852970  0.59568157
   0.87979888  0.91228185  0.51198335
   0.57631248  0.57442091  0.51189791
   0.58991844  0.11567275  0.52515898
   0.85812234  0.15211323  0.49517595
   0.83559130  0.60357827  0.64594926
   0.13373852  0.36031890  0.35687228
   0.79065529  0.27993925  0.44187265
   0.39917610  0.17749484  0.39600320
   0.85604416  0.75007470  0.59655578
   0.28337010  0.93476852  0.54923563
   0.02307473  0.33044751  0.50224551
   0.57455938  0.69549008  0.43556436
   0.23024095  0.75260050  0.45196954
   0.59370158  0.28418641  0.54829643
   0.97515261  0.27232303  0.60263406
   0.88890636  0.02540900  0.42420019
   0.10465589  0.19546522  0.51774286
   0.04814566  0.73303709  0.48263019
   0.23191839  0.20583532  0.56099552
   0.56140781  0.25778527  0.38122611
   0.47703682  0.62682171  0.62119443
   0.28162817  0.77053991  0.59735613
   0.20850083  0.64339984  0.37179454
   0.74047970  0.71059895  0.53585216
   0.98655257  0.99060048  0.55036463
   0.70310456  0.73681815  0.43426040
   0.78790112  0.05944312  0.57677636
   0.45631390  0.32845159  0.40928789
   0.44963703  0.93635899  0.59422850
   0.50864122  0.04133255  0.58598631
   0.24424715  0.37040632  0.42094710
   0.65852534  0.33000211  0.45034791
   0.46011436  0.31837985  0.52893145
   0.33729937  0.58994254  0.39908301
   0.80350060  0.47623114  0.57987609
   0.06920979  0.89885916  0.48050551
   0.21190758  0.14445432  0.37359659
   0.07823286  0.49398499  0.49468762
   0.55757019  0.85234010  0.47473025
   0.71856917  0.58444262  0.60964227
   0.28664212  0.21010174  0.45911077
   0.08824369  0.62557861  0.56760988
   0.35348477  0.01958330  0.57787386
   0.48594787  0.48110106  0.57212001
   0.49938990  0.49916386  0.69624813

 position of ions in cartesian coordinates  (Angst):
  12.90636384  9.79201120 21.45822734
  12.78458482 10.11686527 20.15211478
  17.80099166  1.88139416 17.49859760
  21.68887124  5.04982630  9.57948250
  18.57310935  3.75615001 10.03976840
  22.81522226 17.09935504  8.74523415
  14.64921175 17.45931981 10.08747787
  19.20986618 18.03075152  9.91976410
  17.55830880  2.55833368 12.31360861
  21.43152422  4.52058349 13.68671990
  13.66032332  5.51363181  8.22435231
  20.86825184  6.06567569 16.56377893
  13.79600728  6.50438075 16.54229851
  13.89388953 15.77817151 15.53722701
   0.78929565  6.12003121 17.53304309
  21.89589338  7.60211669 12.20777585
  17.46806539  9.60990927 11.35790489
  18.68212946  6.92235695 17.06408509
  13.83846346 10.30523625 10.16284657
  16.81946503 11.70510106 10.30871170
  19.69247867  9.82944087 11.28015755
   0.11154425 10.94156933  9.61828518
  19.39294954 12.90878407 12.57986315
  20.50646738 10.84925263 19.41107182
  12.17364643 17.85965257 11.33679820
   5.22293275 17.76161801 10.57067472
   5.06558822  4.31016263  8.58198589
   3.68730349  5.97649684  7.50000000
   7.99605454  2.81940543  8.89228530
   5.21406665  0.82920834  8.67629559
  11.96357639 14.97334012 14.69604729
   8.70999535  4.27787284 17.40072301
   5.70237138  1.68796813 16.08905915
   7.38347683  8.82751530 11.89413327
   9.57419369  7.95041833 10.90632902
   9.32938926 14.37219961 10.45189795
   5.71709332 11.87720376  7.91249741
   7.29826932  7.58329756  9.92688859
   9.49267817 10.58787004  9.10861924
   3.26254231  8.84268607  9.46104865
  13.88920341 12.64839014  9.47364424
  10.98005707 15.61013128 11.93160111
   2.84634147  5.85501960 16.44381277
   1.68658967 12.06022238 17.35383167
   5.61089515  7.01723272 18.35751444
   5.76791891 14.78667057 17.98345267
  12.51711291  8.85100249 21.85464267
  13.41205291 10.45507436 22.16915307
  13.29636991  8.45552243 18.73419373
  13.25115390 11.04431965 19.78903557
   8.63740362 11.74899635 11.80179838
   8.11940335  9.13371715 11.30144811
  20.15146997 10.25633033 18.73192781
   8.17067388 17.37753650 14.24890664
   0.78294977 16.89864906 14.20885290
  14.89790566  1.42919560 13.15609244
   1.60709516  0.94711408 10.62190669
  10.57955331  2.34782959 11.30707087
  18.86679123  3.87160553 12.98914499
  22.78180424  3.28973410 16.09727755
   6.43261122  5.42138248 12.05751853
  13.02497128 14.04561294 11.87575437
   9.17447979 17.63656227 16.64631201
   4.15590840  6.34186119 10.89510594
  20.28946650 12.39554609 17.13290863
  20.26706432 17.52644236 12.55556607
   7.04790320 13.78911669 12.31057251
   9.87045805  4.73421333 10.20482654
  18.99332086  8.43318959 13.98469998
  23.02594894  1.31832028 14.01281174
  11.96139411  8.36833841 16.88220775
   0.80854198 16.67059137 11.54385891
  22.54593219  5.49427402  9.44298747
   1.63005096  6.09065222 10.11814055
   4.87647100 13.20393591 10.62861051
   0.91072893  7.59464512 13.41772355
   5.61301177  5.18081990 15.80354795
   9.31683531  3.52395431 17.33651164
  10.64172385 10.21636412 15.59894765
  21.29956399 13.57637243 14.98706434
  20.34739459  1.95787901 11.88993046
  13.40476402 12.09287863 10.11168720
   3.33439013  2.88355087 10.10739962
   8.21061375 13.86762481 16.31003256
  21.32759690 15.31330727 12.98949491
   1.43600223  9.72877939 11.88926245
  16.58313365 10.06030463 11.28987623
   1.76725442 14.80154965 12.98450890
  16.39878711 14.99633320 11.63069310
  17.09384587  0.88758949 14.59805899
  21.51371706  5.47309505 16.99285746
  17.20769333 15.45838249 16.47833452
  14.63491423  9.55703168 13.07549710
  13.03010146 11.41099800 12.56123752
   9.95325898  4.48372843 14.92924295
  22.90303759 13.19667544 12.81787194
  15.31728065 10.76448413 17.02713121
   9.29852311 13.52519090 13.85310555
  14.10975474  9.38073831 10.36813464
  16.85162452 11.43387090 14.97716804
   3.43528552  6.59562459 16.66612811
   1.55522354  9.94069998 14.56964347
  19.17141030 16.03061896 14.42725000
  19.38959778  6.44001838 12.14868300
  12.34555484  5.41275945 14.31939512
  17.25667848  9.04163072 16.01182861
  13.05025009  3.12466491 10.61647095
  18.86866258  4.64651294 10.30420244
   5.55892333 17.27408272 13.65458756
  16.22277779 14.06458909 14.55820398
  21.62836782 17.21070511 14.86587233
  12.30818899  5.75858696 10.71452528
  10.97166735 17.94994801 14.67698306
  19.61232942  1.71764638 14.51113671
  12.59301152  2.10962891 13.07168996
   8.19848185  3.38158105 11.81890631
   0.27532438 17.44013032  9.01248080
  10.71327998 10.63220135 18.12924696
  15.33358375 16.76934745 10.19493214
   1.78612593 12.43164436 11.71794928
  10.58936283  7.33911833 14.85059618
  16.83785811 12.69249221 10.20446890
  10.56119004 12.77275599 16.15379567
  17.61819454 12.85383870 12.80442605
  18.22763753  2.19461088 16.68674850
  23.25384464  5.58158513 12.05458163
  12.50118713  9.20222710 14.28805919
  19.12182067  9.04361594 11.38355200
   5.52003135  2.62989820 16.27333320
   4.76497818 15.05333538 12.64952801
   5.61828801 10.12452304 14.05571630
   1.43230142 11.33424430 16.76628795
   1.07865368 10.91526713  9.52151395
  18.74659397 17.73574850 16.28708828
  12.59506368  0.50191281 10.87439573
  14.19789138  5.66430819 16.26635480
  20.16990973  0.07395004  9.92550906
   2.22199659  2.70047811 12.55674536
   4.01258648  3.69884846 14.27363999
  15.00637423 12.76530096 12.22697399
  10.22576747  7.42551173 10.38808912
  13.44544990  1.06736143 15.35562616
   3.54535369 10.75328740 10.45651017
   6.26813510 10.91510113 10.54651395
  10.30702050  5.83862960 12.64390410
   5.57211440  2.87241773 11.55719116
   1.70336628  2.72252501 15.12383181
  19.78783136  9.85631873 16.12977864
  14.54261459  5.07285683 11.04652184
  14.10921452 16.15556596 12.56053950
   0.73477264  3.53889327 10.45741115
  14.22876548  3.54653809 14.70932546
   3.10901351 17.00414686 12.89022683
   1.87879902  5.08104290 13.75325114
   8.72103929  1.90407316 15.27201075
   1.56067809 12.63089289 14.40187943
  15.60335581  7.52728779 11.56015827
  18.71491512 13.22180881 15.16624772
  16.47777184 17.34580083 12.64014391
  13.99420020 11.48870849 14.86976236
  16.92262720  5.32192920 12.14235921
  22.88566652  5.69318538 14.71157445
   3.70927423 11.41639248 15.33972841
  14.82716522  5.92171361 13.65139239
  19.19501625  7.17746001 16.28069859
  22.44155659  0.49367766 11.20910044
   6.60254102  3.53497249 13.94307088
   5.83544193  8.02830396 12.39472924
   6.40056731 15.39675434 15.26591648
   4.76813504 12.42343385 13.08920785
   3.44435051  8.62697504 13.24126574
   5.25615425  7.65931362 14.97043488
  21.33745138  8.20429214 12.73515651
  20.36286723 12.76750071 12.47800922
  17.28034963  1.68227812 11.96927179
   5.20160188 16.84878525 10.96698378
   5.89185634  7.27697270 17.46775418
  14.75963716 16.00284023 15.95371949
   9.60385771 14.29878657 11.38342242
  21.48621551  3.55245637 13.66334053
   3.10309823  8.03742301  8.93260776
   3.63220806  5.50021683  8.34890949
   8.73253334  2.37219755  9.35415932
   0.80922288  5.29064223 17.02900453
  13.40739699  4.65476936  8.60535697
   5.74477442 13.97091986 17.45941816
   4.85490080 11.74990154  8.34376522
   6.44687148  7.10699146  9.87629901
   8.55333550 10.82900896  9.20004704
   5.29986877  1.01806602  9.62744117
   5.64688233  3.55318002  8.85384768
  11.73544815 16.16960912 12.22767567
  12.87691764 14.99785649 14.36438703
  12.76613758 11.69864285 17.06044783
  11.20199399  2.21989574 16.02225694
   6.15219033 12.58079866 15.28108173
  10.36144058 15.35637142 15.63198206
  17.92488745 11.17897080 17.46024876
  19.77771587 15.07124500 16.74894877
  14.98395370 13.39928900 16.69472687
   0.19096810  0.60563731 16.21083101
   6.66335691  0.03614037 15.95092774
  11.78163724 17.61663729 16.89750904
  10.86653542  7.89140172 19.67805750
   1.94841153 10.98908596 10.92575188
   9.58329864 13.87409317 15.44856715
  19.70678074  7.99967650 12.57708649
   0.40008717 17.94875972 10.58159830
   0.34415087  5.14987929 10.51358498
   0.21600801  2.08465006 15.39118151
  14.27628277 11.91262404 16.41924049
   5.00946263  8.62289206 13.70359715
  21.42278905 13.69169878 13.34099278
  12.18741762  2.00159257 11.45195358
   9.79895987  3.07550586 15.83453221
   1.95373172  2.52197018 10.94101594
  16.43233932  0.81266960 13.10088356
  15.56990047 16.27354966 11.76083937
  15.21965321  9.13359373 11.56390395
   4.64622068 16.53530673 12.47363180
   5.01626416  6.64079116 16.22705021
  15.77218633 14.74245541 15.98566856
   5.07503494 11.62663824 14.47651009
   8.63383069 13.32142384 12.34509184
  18.66977406 16.10125716 16.01392602
  20.59723070 16.53167564 13.76383610
  13.49222135 10.40921737 13.76153903
  13.81075440  2.09613335 14.11804141
  20.08975493  2.75647992 13.31199648
  19.56227409 10.93758482 17.36529060
   3.13099191  6.52942423  9.59392828
  18.51026388  5.07284540 11.87902451
   9.34522920  3.21642612 10.64589911
  20.04110200 13.59228131 16.03742758
   6.63406091 16.93916191 14.76530283
   0.54020935  5.98811771 13.50205012
  13.45117902 12.60314055 11.70943634
   5.39023881 13.63805192 12.15046292
  13.89932251  5.14980930 14.74005389
  22.82958493  4.93483007 16.20083238
  20.81044864  0.46044249 11.40392910
   2.45012993  3.54207153 13.91867114
   1.12715225 13.28353886 12.97472440
   5.42950964  3.72999068 15.08144816
  13.14328356  4.67138795 10.24864117
  11.16804963 11.35878469 16.69979764
   6.59327997 13.96313627 16.05894389
   4.88127424 11.65920103  9.99508876
  17.33558830 12.87693201 14.40550992
  23.09647296 17.95090599 14.79565414
  16.46058793 13.35205634 11.67438144
  18.44578525  1.07718279 15.50569031
  10.68289909  5.95194918 11.00303640
  10.52658501 16.96798317 15.97486251
  11.90794942  0.74899700 15.75328484
   5.71814202  6.71222076 11.31647527
  15.41693082  5.98004644 12.10686792
  10.77187288  5.76943664 14.21945790
   7.89661487 10.69048858 10.72869482
  18.81098926  8.62989724 15.58902133
   1.62029077 16.28843974 12.91760565
   4.96103075  2.61769098 10.04353415
   1.83153245  8.95161914 13.29886860
  13.05343995 15.44545689 12.76234739
  16.82263452 10.59082317 16.38923668
   6.71066321  3.80730338 12.34244318
   2.06589912 11.33625831 15.25926433
   8.27553615  0.35487355 15.53519471
  11.37666873  8.71814633 15.38051185
  11.69136416  9.04546660 18.71749375



--------------------------------------------------------------------------------------------------------


 k-point  1 :   0.0000 0.0000 0.0000  plane waves:  289505
 k-point  2 :   0.3333 0.0000 0.0000  plane waves:  289422
 k-point  3 :   0.0000 0.3333 0.0000  plane waves:  289550
 k-point  4 :   0.3333 0.3333 0.0000  plane waves:  289551
 k-point  5 :  -0.3333 0.3333 0.0000  plane waves:  289551

 maximum and minimum number of plane-waves per node :     72451    72309

 maximum number of plane-waves:    289551
 maximum index in each direction: 
   IXMAX=   43   IYMAX=   33   IZMAX=   49
   IXMIN=  -43   IYMIN=  -33   IZMIN=  -49


 real space projection operators:
  total allocation   :      13529.95 KBytes
  max/ min on nodes  :       3386.15       3379.48


 parallel 3D FFT for wavefunctions:
    minimum data exchange during FFTs selected (reduces bandwidth)
 parallel 3D FFT for charge:
    minimum data exchange during FFTs selected (reduces bandwidth)


 total amount of memory used by VASP MPI-rank0   691170. kBytes
=======================================================================

   base      :      30000. kBytes
   nonlr-proj:      16650. kBytes
   fftplans  :      30982. kBytes
   grid      :      57864. kBytes
   one-center:       1057. kBytes
   wavefun   :     554617. kBytes

     INWAV:  cpu time    0.0000: real time    0.0000
 Broyden mixing: mesh for mixing (old mesh)
   NGX = 85   NGY = 67   NGZ = 99
  (NGX  =256   NGY  =200   NGZ  =300)
  gives a total of 563805 points

 initial charge density was supplied:
 charge density of overlapping atoms calculated
 number of electron    1246.0000000 magnetization 
 keeping initial charge density in first step


--------------------------------------------------------------------------------------------------------


 Maximum index for non-local projection operator          647
 Maximum index for augmentation-charges          541 (set IRDMAX)


--------------------------------------------------------------------------------------------------------


 First call to EWALD:  gamma=   0.079
 Maximum number of real-space cells 3x 3x 2
 Maximum number of reciprocal cells 3x 2x 3

    FEWALD:  cpu time    0.0261: real time    0.0262


--------------------------------------- Iteration      1(   1)  ---------------------------------------


    POTLOK:  cpu time    0.2796: real time    0.2857
    SETDIJ:  cpu time    0.5705: real time    0.5725
     EDDAV:  cpu time   78.8682: real time   79.1816
       DOS:  cpu time    0.0020: real time    0.0020
    --------------------------------------------
      LOOP:  cpu time   79.7203: real time   80.0418

 eigenvalue-minimisations  :  8472
 total energy-change (2. order) : 0.1281803E+05  (-0.4871492E+05)
 number of electron    1246.0000000 magnetization 
 augmentation part     1246.0000000 magnetization 

 DIPCOR: dipole corrections for dipol
 direction  3 min pos    57,
 dipolmoment           0.000000      0.000000      0.055340 electrons x Angstroem
 Tr[quadrupol]    -93569.318544

 energy correction for charged system         0.000000 eV
 dipol+quadrupol energy correction           -0.000025 eV
 added-field ion interaction          5.574251 eV  (added to PSCEN)


 Free energy of the ion-electron system (eV)
  ---------------------------------------------------
  alpha Z        PSCENC =       485.50967329
  Ewald energy   TEWEN  =    308629.89074988
  -Hartree energ DENC   =   -370570.61946695
  -exchange      EXHF   =         0.00000000
  -V(xc)+E(xc)   XCENC  =      3742.35830017
  PAW double counting   =     59729.87451082   -58746.54997561
  entropy T*S    EENTRO =        -1.59169528
  eigenvalues    EBANDS =     -4813.41024330
  atomic energy  EATOM  =     74362.57199611
  Solvation  Ediel_sol  =         0.00000000
  ---------------------------------------------------
  free energy    TOTEN  =     12818.03384912 eV

  energy without entropy =    12819.62554440  energy(sigma->0) =    12818.82969676


--------------------------------------------------------------------------------------------------------




--------------------------------------- Iteration      1(   2)  ---------------------------------------


     EDDAV:  cpu time   95.0877: real time   95.4658
       DOS:  cpu time    0.0012: real time    0.0012
    --------------------------------------------
      LOOP:  cpu time   95.0890: real time   95.4670

 eigenvalue-minimisations  : 10680
 total energy-change (2. order) :-0.1213896E+05  (-0.1174341E+05)
 number of electron    1246.0000000 magnetization 
 augmentation part     1246.0000000 magnetization 

 DIPCOR: dipole corrections for dipol
 direction  3 min pos    57,
 dipolmoment           0.000000      0.000000      0.055340 electrons x Angstroem
 Tr[quadrupol]    -93569.318544

 energy correction for charged system         0.000000 eV
 dipol+quadrupol energy correction           -0.000025 eV
 added-field ion interaction          5.574251 eV  (added to PSCEN)


 Free energy of the ion-electron system (eV)
  ---------------------------------------------------
  alpha Z        PSCENC =       485.50967329
  Ewald energy   TEWEN  =    308629.89074988
  -Hartree energ DENC   =   -370570.61946695
  -exchange      EXHF   =         0.00000000
  -V(xc)+E(xc)   XCENC  =      3742.35830017
  PAW double counting   =     59729.87451082   -58746.54997561
  entropy T*S    EENTRO =        -0.00000000
  eigenvalues    EBANDS =    -16953.95963613
  atomic energy  EATOM  =     74362.57199611
  Solvation  Ediel_sol  =         0.00000000
  ---------------------------------------------------
  free energy    TOTEN  =       679.07615157 eV

  energy without entropy =      679.07615157  energy(sigma->0) =      679.07615157


--------------------------------------------------------------------------------------------------------




--------------------------------------- Iteration      1(   3)  ---------------------------------------


     EDDAV:  cpu time   81.7428: real time   82.0662
       DOS:  cpu time    0.0011: real time    0.0011
    --------------------------------------------
      LOOP:  cpu time   81.7439: real time   82.0673

 eigenvalue-minimisations  :  8864
 total energy-change (2. order) :-0.2658704E+04  (-0.2649464E+04)
 number of electron    1246.0000000 magnetization 
 augmentation part     1246.0000000 magnetization 

 DIPCOR: dipole corrections for dipol
 direction  3 min pos    57,
 dipolmoment           0.000000      0.000000      0.055340 electrons x Angstroem
 Tr[quadrupol]    -93569.318544

 energy correction for charged system         0.000000 eV
 dipol+quadrupol energy correction           -0.000025 eV
 added-field ion interaction          5.574251 eV  (added to PSCEN)


 Free energy of the ion-electron system (eV)
  ---------------------------------------------------
  alpha Z        PSCENC =       485.50967329
  Ewald energy   TEWEN  =    308629.89074988
  -Hartree energ DENC   =   -370570.61946695
  -exchange      EXHF   =         0.00000000
  -V(xc)+E(xc)   XCENC  =      3742.35830017
  PAW double counting   =     59729.87451082   -58746.54997561
  entropy T*S    EENTRO =        -0.00000000
  eigenvalues    EBANDS =    -19612.66407522
  atomic energy  EATOM  =     74362.57199611
  Solvation  Ediel_sol  =         0.00000000
  ---------------------------------------------------
  free energy    TOTEN  =     -1979.62828752 eV

  energy without entropy =    -1979.62828752  energy(sigma->0) =    -1979.62828752


--------------------------------------------------------------------------------------------------------




--------------------------------------- Iteration      1(   4)  ---------------------------------------


     EDDAV:  cpu time   80.8553: real time   81.1718
       DOS:  cpu time    0.0012: real time    0.0012
    --------------------------------------------
      LOOP:  cpu time   80.8565: real time   81.1730

 eigenvalue-minimisations  :  8752
 total energy-change (2. order) :-0.9658354E+02  (-0.9621314E+02)
 number of electron    1246.0000000 magnetization 
 augmentation part     1246.0000000 magnetization 

[...]
     20.26706     17.52644     12.55557        -0.053461      1.268750     -0.953260
      7.04790     13.78912     12.31057        -0.291692     -0.085965     -0.080192
      9.87046      4.73421     10.20483         0.406042      0.017687      0.519955
     18.99332      8.43319     13.98470         0.001958     -0.006806      0.000933
     23.02595      1.31832     14.01281         0.004976     -0.002102      0.003220
     11.96139      8.36834     16.88221         0.014934      0.003863      0.007244
      0.80854     16.67059     11.54386        -0.107173      0.440074     -0.278923
     22.54593      5.49427      9.44299         0.188101     -0.187002      0.421370
      1.63005      6.09065     10.11814         0.290186     -0.135526     -0.020760
      4.87647     13.20394     10.62861         0.424947     -0.158278      0.435869
      0.91073      7.59465     13.41772         0.446998      0.050156      0.186878
      5.61301      5.18082     15.80355        -0.001572      0.007082     -0.002114
      9.31684      3.52395     17.33651        -0.010245     -0.001308     -0.002569
     10.64172     10.21636     15.59895         0.008670      0.001435      0.005554
     21.29956     13.57637     14.98706         0.001255     -0.006097      0.005229
     20.34739      1.95788     11.88993        -0.087195     -0.041859      0.441633
     13.40476     12.09288     10.11169        -0.260711      0.193362      0.102933
      3.33439      2.88355     10.10740        -0.036885     -0.059495      0.201132
      8.21061     13.86762     16.31003         0.000618      0.004106     -0.001814
     21.32760     15.31331     12.98949         0.320538     -1.481846      0.197170
      1.43600      9.72878     11.88926         0.540533      0.262370      0.075745
     16.58313     10.06030     11.28988        -0.112698     -0.552979     -0.036038
      1.76725     14.80155     12.98451        -0.026713     -6.359101      0.309911
     16.39879     14.99633     11.63069         1.818932     -3.822367     -0.201911
     17.09385      0.88759     14.59806         0.004626     -0.011354     -0.013218
     21.51372      5.47310     16.99286        -0.000021      0.002427     -0.001915
     17.20769     15.45838     16.47833         0.001518      0.001928      0.002875
     14.63491      9.55703     13.07550         1.919650     -1.208800     -1.210474
     13.03010     11.41100     12.56124        -3.564863     -2.773748      1.729894
      9.95326      4.48373     14.92924         0.008591     -0.008918      0.004642
     22.90304     13.19668     12.81787         0.415829      0.295487      0.247230
     15.31728     10.76448     17.02713        -0.005004      0.003910     -0.002889
      9.29852     13.52519     13.85311        -0.004613     -0.002738      0.016160
     14.10975      9.38074     10.36813         0.276985     -0.120959      0.372067
     16.85162     11.43387     14.97717         0.014612      0.000930     -0.002854
      3.43529      6.59562     16.66613         0.013868      0.008580      0.001037
      1.55522      9.94070     14.56964         0.002703      0.007515     -0.000889
     19.17141     16.03062     14.42725        -0.002583     -0.000382      0.006861
     19.38960      6.44002     12.14868        -0.133523      0.253488      0.201778
     12.34555      5.41276     14.31940        -0.022993      0.013976     -0.013258
     17.25668      9.04163     16.01183         0.006913     -0.003702     -0.006732
     13.05025      3.12466     10.61647        -1.377719     -1.825570      0.528041
     18.86866      4.64651     10.30420        -0.041695     -0.025324      0.764387
      5.55892     17.27408     13.65459        -0.828097      0.210623     -0.980929
     16.22278     14.06459     14.55820        -0.007435      0.003441     -0.001529
     21.62837     17.21071     14.86587         0.003194      0.003464      0.002738
     12.30819      5.75859     10.71453        -7.872962      6.653405      3.192065
     10.97167     17.94995     14.67698        -0.007771      0.001973     -0.008787
     19.61233      1.71765     14.51114         0.001883      0.004947      0.006109
     12.59301      2.10963     13.07169        -2.084442      0.597484     -1.047143
      8.19848      3.38158     11.81891        -0.125778      0.163166      0.047674
      0.27532     17.44013      9.01248        -0.250891      0.116128      0.334101
     10.71328     10.63220     18.12925         0.009613      0.005339      0.009070
     15.33358     16.76935     10.19493        -0.565220      0.121983      0.633150
      1.78613     12.43164     11.71795         0.014786     -0.125702      0.117726
     10.58936      7.33912     14.85060         0.005867     -0.000255      0.008797
     16.83786     12.69249     10.20447        -0.050252      0.281966      0.495891
     10.56119     12.77276     16.15380        -0.003491      0.003035     -0.007557
     17.61819     12.85384     12.80443        -0.367222      0.229120     -1.061597
     18.22764      2.19461     16.68675         0.003127      0.003359     -0.000036
     23.25384      5.58159     12.05458         0.244077      0.007254     -0.005463
     12.50119      9.20223     14.28806        -0.004365      0.004860     -0.012851
     19.12182      9.04362     11.38355         0.336121     -0.395617      0.444296
      5.52003      2.62990     16.27333         0.000208      0.020435     -0.002150
      4.76498     15.05334     12.64953         0.593140     -6.689117      0.323617
      5.61829     10.12452     14.05572         0.001726     -0.011052     -0.004894
      1.43230     11.33424     16.76629        -0.010522     -0.037094     -0.031456
      1.07865     10.91527      9.52151         0.188792      0.220997      0.445856
     18.74659     17.73575     16.28709         0.003410      0.004055     -0.000426
     12.59506      0.50191     10.87440        -0.222966      0.377557      0.166862
     14.19789      5.66431     16.26635         0.005385     -0.014622     -0.001716
     20.16991      0.07395      9.92551        -0.067114      0.005463      0.306406
      2.22200      2.70048     12.55675        -0.039372     -0.055104     -0.780788
      4.01259      3.69885     14.27364        -0.002866      0.001704     -0.007148
     15.00637     12.76530     12.22697         2.656452      0.215715     -0.617528
     10.22577      7.42551     10.38809         0.255152     -0.702939      0.518464
     13.44545      1.06736     15.35563        -0.002553     -0.001633     -0.001442
      3.54535     10.75329     10.45651        -0.005428      0.702762      0.086872
      6.26814     10.91510     10.54651         0.149892      0.311878      0.043366
     10.30702      5.83863     12.64390         0.375535      0.065748     -0.764027
      5.57211      2.87242     11.55719         0.325806      0.285193     -0.350642
      1.70337      2.72253     15.12383         0.001411      0.000560     -0.003940
     19.78783      9.85632     16.12978         0.000450      0.000938      0.000050
     14.54261      5.07286     11.04652         1.386511      0.650424      0.841954
     14.10921     16.15557     12.56054        23.530357     14.635152     -4.501263
      0.73477      3.53889     10.45741         0.417081      0.153575      0.278598
     14.22877      3.54654     14.70933        -0.008141      0.010623     -0.000294
      3.10901     17.00415     12.89023         0.017435     -0.150303     -0.328041
      1.87880      5.08104     13.75325         0.008834     -0.003441     -0.006866
      8.72104      1.90407     15.27201        -0.000904      0.003102     -0.002406
      1.56068     12.63089     14.40188         0.003627      0.002230     -0.002293
     15.60336      7.52729     11.56016        -0.322377      0.201547      0.448492
     18.71492     13.22181     15.16625         0.001482      0.002972     -0.004130
     16.47777     17.34580     12.64014        -0.776272      0.361785     -0.207176
     13.99420     11.48871     14.86976        -0.000001     -0.000011     -0.003126
     16.92263      5.32193     12.14236         0.253396      0.050121     -0.020882
     22.88567      5.69319     14.71157         0.000771      0.001890     -0.001013
      3.70927     11.41639     15.33973         0.008990      0.000655     -0.003445
     14.82717      5.92171     13.65139         0.340263      0.231497     -0.723428
     19.19502      7.17746     16.28070         0.002519      0.005829      0.002109
     22.44156      0.49368     11.20910        -0.300408     -0.372761     -0.319570
      6.60254      3.53497     13.94307         0.002538     -0.003634     -0.005235
      5.83544      8.02830     12.39473        -0.039131     -0.719408     -0.601600
      6.40057     15.39675     15.26592         0.010037     -0.011738     -0.004229
      4.76814     12.42343     13.08921         0.254745      0.534359     -0.368650
      3.44435      8.62698     13.24127        -0.305561      0.076996      0.193741
      5.25615      7.65931     14.97043        -0.001678     -0.000758      0.007535
     21.33745      8.20429     12.73516        -0.247249     -0.145496     -0.137277
     20.36287     12.76750     12.47801         0.322280      0.275342      0.441524
     17.28035      1.68228     11.96927        -0.170056     -0.271065      0.486852
      5.20160     16.84879     10.96698        -0.331856      0.363006      0.369988
      5.89186      7.27697     17.46775         0.007492     -0.006579     -0.017586
     14.75964     16.00284     15.95372        -0.003212      0.001020      0.006390
      9.60386     14.29879     11.38342        -0.521916     -0.401316      0.310073
     21.48622      3.55246     13.66334        -0.759766     -0.025472     -0.108368
      3.10310      8.03742      8.93261         0.096141     -0.241943      0.319949
      3.63221      5.50022      8.34891        -0.162135      0.545190      0.364000
      8.73253      2.37220      9.35416         0.189602      0.605302      0.350034
      0.80922      5.29064     17.02900         0.002094     -0.009770     -0.013192
     13.40740      4.65477      8.60536        -0.204941      0.161401      0.221534
      5.74477     13.97092     17.45942        -0.004552      0.003722      0.001476
      4.85490     11.74990      8.34377         0.075684     -0.130278      0.511313
      6.44687      7.10699      9.87630         0.019008      0.045929      0.710776
      8.55334     10.82901      9.20005        -0.087022     -0.024370      0.752608
      5.29987      1.01807      9.62744        -0.073943      0.790814      0.120731
      5.64688      3.55318      8.85385        -0.377186     -0.060026      0.458771
     11.73545     16.16961     12.22768        -2.213660      1.029881     -0.692929
     12.87692     14.99786     14.36439        -0.016750      0.002343      0.013500
     12.76614     11.69864     17.06045         0.016946      0.003091     -0.004165
     11.20199      2.21990     16.02226        -0.001526      0.005495      0.002409
      6.15219     12.58080     15.28108        -0.004298      0.003402     -0.003130
     10.36144     15.35637     15.63198        -0.002769     -0.001406     -0.000717
     17.92489     11.17897     17.46025         0.001335     -0.001225     -0.005550
     19.77772     15.07124     16.74895        -0.004804     -0.008063     -0.000901
     14.98395     13.39929     16.69473        -0.002041     -0.005447     -0.003821
      0.19097      0.60564     16.21083        -0.008599     -0.001780     -0.019732
      6.66336      0.03614     15.95093        -0.006248     -0.006430      0.002356
     11.78164     17.61664     16.89751         0.000865     -0.001685     -0.001671
     10.86654      7.89140     19.67806         0.009410     -0.001573      0.018881
      1.94841     10.98909     10.92575        -0.065187     -0.145611      0.029060
      9.58330     13.87409     15.44857         0.002460     -0.005751     -0.003183
     19.70678      7.99968     12.57709         0.132693     -0.164780     -0.290225
      0.40009     17.94876     10.58160         0.094772     -0.140179      0.299465
      0.34415      5.14988     10.51358         0.040622      0.036783      0.053803
      0.21601      2.08465     15.39118        -0.001231      0.000756      0.001933
     14.27628     11.91262     16.41924        -0.005059     -0.002238      0.004005
      5.00946      8.62289     13.70360         0.002185      0.007867      0.000992
     21.42279     13.69170     13.34099         0.205247      0.241322     -0.641344
     12.18742      2.00159     11.45195         0.164326     -0.067844      0.472279
      9.79896      3.07551     15.83453        -0.000712     -0.008301     -0.001525
      1.95373      2.52197     10.94102         0.071492     -0.119514      0.047921
     16.43234      0.81267     13.10088         0.079946     -0.080031     -0.313164
     15.56990     16.27355     11.76084        -0.468667      4.556998     -0.226808
     15.21965      9.13359     11.56390         0.080969      0.039345      0.224782
      4.64622     16.53531     12.47363        -0.724330      6.172986     -0.363228
      5.01626      6.64079     16.22705        -0.002986     -0.001470      0.005679
     15.77219     14.74246     15.98567         0.004089      0.004010     -0.003407
      5.07503     11.62664     14.47651         0.002158      0.000886      0.003244
      8.63383     13.32142     12.34509        -0.292676     -0.033197     -0.002112
     18.66977     16.10126     16.01393         0.001098     -0.005473     -0.002132
     20.59723     16.53168     13.76384         0.001430     -0.004910      0.003627
     13.49222     10.40922     13.76154        -0.004823     -0.005050     -0.000834
     13.81075      2.09613     14.11804        -0.002918     -0.006777     -0.001747
     20.08975      2.75648     13.31200        -0.188306     -0.015719     -0.433424
     19.56227     10.93758     17.36529        -0.000371      0.000750     -0.002251
      3.13099      6.52942      9.59393        -0.102410     -0.112420      0.038925
     18.51026      5.07285     11.87902        -0.283803      0.100185      0.074847
      9.34523      3.21643     10.64590        -0.135464     -0.311246      0.221563
     20.04110     13.59228     16.03743         0.002276     -0.003867      0.003602
      6.63406     16.93916     14.76530         0.000928      0.005509      0.000278
      0.54021      5.98812     13.50205         0.285793      0.196795     -0.411841
     13.45118     12.60314     11.70944         3.909704     -0.874860     -2.478758
      5.39024     13.63805     12.15046         0.112898     -0.586288      0.000804
     13.89932      5.14981     14.74005         0.014761     -0.004605      0.009235
     22.82958      4.93483     16.20083         0.003241     -0.002615      0.002435
     20.81045      0.46044     11.40393         0.021646      0.046291      0.101157
      2.45013      3.54207     13.91867         0.002619     -0.001588      0.006991
      1.12715     13.28354     12.97472        -0.135530     -0.559928     -0.255323
      5.42951      3.72999     15.08145         0.003749     -0.010555      0.012719
     13.14328      4.67139     10.24864         8.348993     -5.354825     -3.589932
     11.16805     11.35878     16.69980         0.003450      0.003664      0.001788
      6.59328     13.96314     16.05894        -0.000534      0.001696     -0.001927
      4.88127     11.65920      9.99509         0.069169     -0.071471      0.006165
     17.33559     12.87693     14.40551         0.008439     -0.002896      0.005464
     23.09647     17.95091     14.79565         0.000764      0.002549      0.006652
     16.46059     13.35206     11.67438        -0.699578     -1.357274      0.339612
     18.44579      1.07718     15.50569        -0.003985      0.001356     -0.000334
     10.68290      5.95195     11.00304        -1.150874      0.538944      0.459462
     10.52659     16.96798     15.97486        -0.001496      0.012639     -0.001089
     11.90795      0.74900     15.75328        -0.000568      0.005166     -0.005130
      5.71814      6.71222     11.31648         0.018683     -0.130587     -0.121735
     15.41693      5.98005     12.10687        -0.159620     -0.471445     -0.810972
     10.77187      5.76944     14.21946         0.005908      0.006848     -0.002062
      7.89661     10.69049     10.72869        -0.129182     -0.079131     -0.064031
     18.81099      8.62990     15.58902        -0.002646      0.000891      0.002557
      1.62029     16.28844     12.91761        -0.331449      6.437451     -0.548015
      4.96103      2.61769     10.04353        -0.072145     -0.041660      0.053375
      1.83153      8.95162     13.29887         0.028796     -0.137033     -0.319755
     13.05344     15.44546     12.76235       -22.319483    -15.854029      4.704422
     16.82263     10.59082     16.38924        -0.000385     -0.003346     -0.002300
      6.71066      3.80730     12.34244        -0.216867     -0.000180     -0.774516
      2.06590     11.33626     15.25926        -0.006707     -0.001937      0.014350
      8.27554      0.35487     15.53519        -0.003660      0.001943     -0.003682
     11.37667      8.71815     15.38051         0.002597     -0.004615     -0.007536
     11.69136      9.04547     18.71749         0.021821      0.012037     -0.007098
 -----------------------------------------------------------------------------------
    total drift:                                0.401315      0.396159      0.161161


--------------------------------------------------------------------------------------------------------



  FREE ENERGIE OF THE ION-ELECTRON SYSTEM (eV)
  ---------------------------------------------------
  free  energy   TOTEN  =     -1853.48693010 eV

  energy  without entropy=    -1853.48693010  energy(sigma->0) =    -1853.48693010



--------------------------------------------------------------------------------------------------------


    POTLOK:  cpu time    0.8244: real time    0.8273


--------------------------------------------------------------------------------------------------------


 stress matrix after NEB project (eV)
    -32.52370      0.11849      0.27286
      0.11849    -33.03334     -0.10142
      0.27286     -0.10142    -24.89717
  FORCES: max atom, RMS     0.049761    0.009381
  FORCE total and by dimension    0.154150    0.039311
  Stress total and by dimension   52.621856   33.033345
 Quasi-Newton relaxation of ions (Broydens 2nd method)
  g(Force)  = 0.115E-02   g(Stress)= 0.000E+00

 Reset! Starting new Quasi-Newton update for ions 


--------------------------------------------------------------------------------------------------------


  
 reached required accuracy - stopping structural energy minimisation
     LOOP+:  cpu time 1186.6489: real time 1191.2564
    4ORBIT:  cpu time    0.0000: real time    0.0000

 total amount of memory used by VASP MPI-rank0   691170. kBytes
=======================================================================

   base      :      30000. kBytes
   nonlr-proj:      16650. kBytes
   fftplans  :      30982. kBytes
   grid      :      57864. kBytes
   one-center:       1057. kBytes
   wavefun   :     554617. kBytes

  
  
 General timing and accounting informations for this job:
 ========================================================
  
                  Total CPU time used (sec):     1292.107
                            User time (sec):     1289.118
                          System time (sec):        2.989
                         Elapsed time (sec):     1301.987
  
                   Maximum memory used (kb):      976264.
                   Average memory used (kb):           0.
  
                          Minor page faults:      2756963
                          Major page faults:          235
                 Voluntary context switches:         5749
