 vasp.5.4.4.18Apr17-6-g9f103f2a35 (build Oct 20 2021 08:33:53) complex           
 executed on             LinuxGNU date 2024.06.01  22:02:18
 running on   64 total cores
 each image running on    8 cores
 distrk:  each k-point on    8 cores,    1 groups
 distr:  one band on NCORES_PER_BAND=   4 cores,    2 groups


--------------------------------------------------------------------------------------------------------


 INCAR:
 POTCAR:    PAW_PBE C 08Apr2002                   
 POTCAR:    PAW_PBE H 15Jun2001                   
 POTCAR:    PAW_PBE O 08Apr2002                   
 POTCAR:    PAW_PBE Si 05Jan2001                  
 POTCAR:    PAW_PBE W 08Apr2002                   
 POTCAR:    PAW_PBE C 08Apr2002                   
   VRHFIN =C: s2p2                                                              
   LEXCH  = PE                                                                  
   EATOM  =   147.1560 eV,   10.8157 Ry                                         
                                                                                
   TITEL  = PAW_PBE C 08Apr2002                                                 
   LULTRA =        F    use ultrasoft PP ?                                      
   IUNSCR =        1    unscreen: 0-lin 1-nonlin 2-no                           
   RPACOR =    1.200    partial core radius                                     
   POMASS =   12.011; ZVAL   =    4.000    mass and valenz                      
   RCORE  =    1.500    outmost cutoff radius                                   
   RWIGS  =    1.630; RWIGS  =    0.863    wigner-seitz radius (au A)           
   ENMAX  =  400.000; ENMIN  =  300.000 eV                                      
   ICORE  =        2    local potential                                         
   LCOR   =        T    correct aug charges                                     
   LPAW   =        T    paw PP                                                  
   EAUG   =  644.873                                                            
   DEXC   =    0.000                                                            
   RMAX   =    1.529    core radius for proj-oper                               
   RAUG   =    1.300    factor for augmentation sphere                          
   RDEP   =    1.501    radius for radial grids                                 
   RDEPT  =    1.300    core radius for aug-charge                              
                                                                                
   Atomic configuration                                                         
    4 entries                                                                   
     n  l   j            E        occ.                                          
     1  0  0.50      -273.3789   2.0000                                         
     2  0  0.50       -13.7508   2.0000                                         
     2  1  0.50        -5.2854   2.0000                                         
     3  2  1.50        -5.4423   0.0000                                         
   Description                                                                  
     l       E           TYP  RCUT    TYP  RCUT                                 
     0    -13.7508458     23  1.200                                             
     0     -8.2022199     23  1.200                                             
     1     -5.2854383     23  1.500                                             
     1     34.0145650     23  1.500                                             
     2     -5.4423304      7  1.500                                             
  local pseudopotential read in
  partial core-charges read in
  partial kinetic energy density read in
  atomic valenz-charges read in
  non local Contribution for L=           0  read in
    real space projection operators read in
  non local Contribution for L=           0  read in
    real space projection operators read in
  non local Contribution for L=           1  read in
    real space projection operators read in
  non local Contribution for L=           1  read in
    real space projection operators read in
    PAW grid and wavefunctions read in

   number of l-projection  operators is LMAX  =           4
   number of lm-projection operators is LMMAX =           8

 POTCAR:    PAW_PBE H 15Jun2001                   
   VRHFIN =H: ultrasoft test                                                    
   LEXCH  = PE                                                                  
   EATOM  =    12.4884 eV,    0.9179 Ry                                         
                                                                                
   TITEL  = PAW_PBE H 15Jun2001                                                 
   LULTRA =        F    use ultrasoft PP ?                                      
   IUNSCR =        0    unscreen: 0-lin 1-nonlin 2-no                           
   RPACOR =    0.000    partial core radius                                     
   POMASS =    1.000; ZVAL   =    1.000    mass and valenz                      
   RCORE  =    1.100    outmost cutoff radius                                   
   RWIGS  =    0.700; RWIGS  =    0.370    wigner-seitz radius (au A)           
   ENMAX  =  250.000; ENMIN  =  200.000 eV                                      
   RCLOC  =    0.701    cutoff for local pot                                    
   LCOR   =        T    correct aug charges                                     
   LPAW   =        T    paw PP                                                  
   EAUG   =  400.000                                                            
   RMAX   =    1.123    core radius for proj-oper                               
   RAUG   =    1.200    factor for augmentation sphere                          
   RDEP   =    1.112    radius for radial grids                                 
   RDEPT  =    0.926    core radius for aug-charge                              
                                                                                
   Atomic configuration                                                         
    2 entries                                                                   
     n  l   j            E        occ.                                          
     1  0  0.50        -6.4927   1.0000                                         
     2  1  0.50        -3.4015   0.0000                                         
   Description                                                                  
     l       E           TYP  RCUT    TYP  RCUT                                 
     0     -6.4927494     23  1.100                                             
     0      6.8029130     23  1.100                                             
     1     -4.0817478     23  1.100                                             
  local pseudopotential read in
  atomic valenz-charges read in
  non local Contribution for L=           0  read in
    real space projection operators read in
  non local Contribution for L=           0  read in
    real space projection operators read in
  non local Contribution for L=           1  read in
    real space projection operators read in
    PAW grid and wavefunctions read in

   number of l-projection  operators is LMAX  =           3
   number of lm-projection operators is LMMAX =           5

 POTCAR:    PAW_PBE O 08Apr2002                   
   VRHFIN =O: s2p4                                                              
   LEXCH  = PE                                                                  
   EATOM  =   432.3788 eV,   31.7789 Ry                                         
                                                                                
   TITEL  = PAW_PBE O 08Apr2002                                                 
   LULTRA =        F    use ultrasoft PP ?                                      
   IUNSCR =        1    unscreen: 0-lin 1-nonlin 2-no                           
   RPACOR =    1.200    partial core radius                                     
   POMASS =   16.000; ZVAL   =    6.000    mass and valenz                      
   RCORE  =    1.520    outmost cutoff radius                                   
   RWIGS  =    1.550; RWIGS  =    0.820    wigner-seitz radius (au A)           
   ENMAX  =  400.000; ENMIN  =  300.000 eV                                      
   ICORE  =        2    local potential                                         
   LCOR   =        T    correct aug charges                                     
   LPAW   =        T    paw PP                                                  
   EAUG   =  605.392                                                            
   DEXC   =    0.000                                                            
   RMAX   =    1.553    core radius for proj-oper                               
   RAUG   =    1.300    factor for augmentation sphere                          
   RDEP   =    1.550    radius for radial grids                                 
   RDEPT  =    1.329    core radius for aug-charge                              
                                                                                
   Atomic configuration                                                         
    4 entries                                                                   
     n  l   j            E        occ.                                          
     1  0  0.50      -514.6923   2.0000                                         
     2  0  0.50       -23.9615   2.0000                                         
     2  1  0.50        -9.0305   4.0000                                         
     3  2  1.50        -9.5241   0.0000                                         
   Description                                                                  
     l       E           TYP  RCUT    TYP  RCUT                                 
     0    -23.9615318     23  1.200                                             
     0     -9.5240782     23  1.200                                             
     1     -9.0304911     23  1.520                                             
     1      8.1634956     23  1.520                                             
     2     -9.5240782      7  1.500                                             
  local pseudopotential read in
  partial core-charges read in
  partial kinetic energy density read in
  kinetic energy density of atom read in
  atomic valenz-charges read in
  non local Contribution for L=           0  read in
    real space projection operators read in
  non local Contribution for L=           0  read in
    real space projection operators read in
  non local Contribution for L=           1  read in
    real space projection operators read in
  non local Contribution for L=           1  read in
    real space projection operators read in
    PAW grid and wavefunctions read in

   number of l-projection  operators is LMAX  =           4
   number of lm-projection operators is LMMAX =           8

 POTCAR:    PAW_PBE Si 05Jan2001                  
   VRHFIN =Si: s2p2                                                             
   LEXCH  = PE                                                                  
   EATOM  =   103.0669 eV,    7.5752 Ry                                         
                                                                                
   TITEL  = PAW_PBE Si 05Jan2001                                                
   LULTRA =        F    use ultrasoft PP ?                                      
   IUNSCR =        1    unscreen: 0-lin 1-nonlin 2-no                           
   RPACOR =    1.500    partial core radius                                     
   POMASS =   28.085; ZVAL   =    4.000    mass and valenz                      
   RCORE  =    1.900    outmost cutoff radius                                   
   RWIGS  =    2.480; RWIGS  =    1.312    wigner-seitz radius (au A)           
   ENMAX  =  245.345; ENMIN  =  184.009 eV                                      
   ICORE  =        2    local potential                                         
   LCOR   =        T    correct aug charges                                     
   LPAW   =        T    paw PP                                                  
   EAUG   =  322.069                                                            
   DEXC   =    0.000                                                            
   RMAX   =    1.950    core radius for proj-oper                               
   RAUG   =    1.300    factor for augmentation sphere                          
   RDEP   =    1.993    radius for radial grids                                 
   RDEPT  =    1.837    core radius for aug-charge                              
                                                                                
   Atomic configuration                                                         
    6 entries                                                                   
     n  l   j            E        occ.                                          
     1  0  0.50     -1785.8828   2.0000                                         
     2  0  0.50      -139.4969   2.0000                                         
     2  1  1.50       -95.5546   6.0000                                         
     3  0  0.50       -10.8127   2.0000                                         
     3  1  0.50        -4.0811   2.0000                                         
     3  2  1.50        -4.0817   0.0000                                         
   Description                                                                  
     l       E           TYP  RCUT    TYP  RCUT                                 
     0    -10.8127223     23  1.900                                             
     0     -7.6451159     23  1.900                                             
     1     -4.0811372     23  1.900                                             
     1      2.4879257     23  1.900                                             
     2     -4.0817478      7  1.900                                             
  local pseudopotential read in
  partial core-charges read in
  partial kinetic energy density read in
  atomic valenz-charges read in
  non local Contribution for L=           0  read in
    real space projection operators read in
  non local Contribution for L=           0  read in
    real space projection operators read in
  non local Contribution for L=           1  read in
    real space projection operators read in
  non local Contribution for L=           1  read in
    real space projection operators read in
    PAW grid and wavefunctions read in

   number of l-projection  operators is LMAX  =           4
   number of lm-projection operators is LMMAX =           8

 POTCAR:    PAW_PBE W 08Apr2002                   
   VRHFIN =W : 6s5d                                                             
   LEXCH  = PE                                                                  
   EATOM  =   204.6103 eV,   15.0384 Ry                                         
                                                                                
   TITEL  = PAW_PBE W 08Apr2002                                                 
   LULTRA =        F    use ultrasoft PP ?                                      
   IUNSCR =        1    unscreen: 0-lin 1-nonlin 2-no                           
   RPACOR =    2.330    partial core radius                                     
   POMASS =  183.850; ZVAL   =    6.000    mass and valenz                      
   RCORE  =    2.750    outmost cutoff radius                                   
   RWIGS  =    2.750; RWIGS  =    1.455    wigner-seitz radius (au A)           
   ENMAX  =  223.057; ENMIN  =  167.293 eV                                      
   RCLOC  =    2.147    cutoff for local pot                                    
   LCOR   =        T    correct aug charges                                     
   LPAW   =        T    paw PP                                                  
   EAUG   =  373.438                                                            
   DEXC   =    0.000                                                            
   RMAX   =    2.801    core radius for proj-oper                               
   RAUG   =    1.300    factor for augmentation sphere                          
   RDEP   =    2.886    radius for radial grids                                 
   RDEPT  =    2.230    core radius for aug-charge                              
                                                                                
   Atomic configuration                                                         
   16 entries                                                                   
     n  l   j            E        occ.                                          
     1  0  0.50    -69465.5836   2.0000                                         
     2  0  0.50    -11986.2642   2.0000                                         
     2  1  1.50    -10479.8616   6.0000                                         
     3  0  0.50     -2759.0758   2.0000                                         
     3  1  1.50     -2313.1857   6.0000                                         
     3  2  2.50     -1801.1185  10.0000                                         
     4  0  0.50      -567.6791   2.0000                                         
     4  1  1.50      -421.4694   6.0000                                         
     4  2  2.50      -236.3473  10.0000                                         
     4  3  3.50       -31.2666  14.0000                                         
     5  0  0.50       -77.1085   2.0000                                         
     5  1  1.50       -41.3856   6.0000                                         
     5  2  2.50        -3.3185   5.0000                                         
     6  0  0.50        -5.1438   1.0000                                         
     6  1  0.50        -3.8096   0.0000                                         
     5  3  2.50        -1.3606   0.0000                                         
   Description                                                                  
     l       E           TYP  RCUT    TYP  RCUT                                 
     2     -3.3185288     23  2.500                                             
     2     -1.5965414     23  2.500                                             
     0     -5.1438054     23  2.500                                             
     0      4.9117504     23  2.500                                             
     1      2.7211652     23  2.750                                             
     1     27.2116520     23  2.750                                             
  local pseudopotential read in
  partial core-charges read in
  partial kinetic energy density read in
  atomic valenz-charges read in
  non local Contribution for L=           2  read in
    real space projection operators read in
  non local Contribution for L=           2  read in
    real space projection operators read in
  non local Contribution for L=           0  read in
    real space projection operators read in
  non local Contribution for L=           0  read in
    real space projection operators read in
  non local Contribution for L=           1  read in
    real space projection operators read in
  non local Contribution for L=           1  read in
    real space projection operators read in
    PAW grid and wavefunctions read in

   number of l-projection  operators is LMAX  =           6
   number of lm-projection operators is LMMAX =          18

 Optimization of the real space projectors (new method)

 maximal supplied QI-value         = 25.13
 optimisation between [QCUT,QGAM] = [ 11.31, 22.87] = [ 35.82,146.48] Ry 
 Optimized for a Real-space Cutoff    1.00 Angstroem

   l    n(q)    QCUT    max X(q) W(low)/X(q) W(high)/X(q)  e(spline) 
   0      7    11.310   115.676    0.43E-03    0.13E-02    0.19E-06
   0      7    11.310    87.132    0.43E-03    0.13E-02    0.18E-06
   1      6    11.310     4.429    0.42E-03    0.74E-03    0.11E-06
   1      6    11.310     2.733    0.34E-03    0.55E-03    0.92E-07
 Optimization of the real space projectors (new method)

 maximal supplied QI-value         = 34.20
 optimisation between [QCUT,QGAM] = [ 11.29, 22.57] = [ 35.68,142.71] Ry 
 Optimized for a Real-space Cutoff    1.16 Angstroem

   l    n(q)    QCUT    max X(q) W(low)/X(q) W(high)/X(q)  e(spline) 
   0      8    11.287    19.460    0.40E-03    0.73E-03    0.16E-06
   0      8    11.287    12.209    0.38E-03    0.70E-03    0.15E-06
   1      7    11.287     4.655    0.22E-03    0.25E-04    0.22E-06
 Optimization of the real space projectors (new method)

 maximal supplied QI-value         = 24.76
 optimisation between [QCUT,QGAM] = [ 11.39, 22.77] = [ 36.31,145.25] Ry 
 Optimized for a Real-space Cutoff    1.00 Angstroem

   l    n(q)    QCUT    max X(q) W(low)/X(q) W(high)/X(q)  e(spline) 
   0      7    11.387    20.381    0.39E-03    0.13E-02    0.15E-06
   0      7    11.387    15.268    0.42E-03    0.14E-02    0.17E-06
   1      6    11.387     5.964    0.41E-03    0.11E-02    0.17E-06
   1      6    11.387     5.382    0.39E-03    0.87E-03    0.15E-06
 Optimization of the real space projectors (new method)

 maximal supplied QI-value         = 19.84
 optimisation between [QCUT,QGAM] = [ 11.31, 22.82] = [ 35.82,145.81] Ry 
 Optimized for a Real-space Cutoff    1.16 Angstroem

   l    n(q)    QCUT    max X(q) W(low)/X(q) W(high)/X(q)  e(spline) 
   0      8    11.310   159.560    0.27E-03    0.30E-03    0.39E-07
   0      8    11.310   115.863    0.27E-03    0.30E-03    0.38E-07
   1      7    11.310    88.339    0.28E-03    0.28E-03    0.77E-07
   1      7    11.310    48.592    0.27E-03    0.27E-03    0.74E-07
 Optimization of the real space projectors (new method)

 maximal supplied QI-value         = 13.61
 optimisation between [QCUT,QGAM] = [ 11.43, 22.86] = [ 36.58,146.31] Ry 
 Optimized for a Real-space Cutoff    1.56 Angstroem

   l    n(q)    QCUT    max X(q) W(low)/X(q) W(high)/X(q)  e(spline) 
   2     10    11.429   130.855    0.22E-03    0.64E-03    0.11E-05
   2     10    11.429   114.007    0.22E-03    0.64E-03    0.11E-05
   0     11    11.429    84.709    0.39E-04    0.67E-04    0.23E-06
   0     11    11.429    49.163    0.35E-04    0.62E-04    0.21E-06
   1     10    11.429    15.765    0.84E-04    0.15E-03    0.24E-06
   1     10    11.429    10.638    0.58E-04    0.12E-03    0.19E-06

 ----------------------------------------------------------------------------- 
|                                                                             |
|  ADVICE TO THIS USER RUNNING 'VASP/VAMP'   (HEAR YOUR MASTER'S VOICE ...):  |
|                                                                             |
|      You enforced a specific xc-type in the INCAR file,                     |
|      a different type was found on the POTCAR file                          |
|          I HOPE YOU KNOW, WHAT YOU ARE  DOING                               |
|                                                                             |
 ----------------------------------------------------------------------------- 

  PAW_PBE C 08Apr2002                   :
 energy of atom  1       EATOM= -147.1560
 kinetic energy error for atom=    0.0076 (will be added to EATOM!!)
  PAW_PBE H 15Jun2001                   :
 energy of atom  2       EATOM=  -12.4884
 kinetic energy error for atom=    0.0020 (will be added to EATOM!!)
  PAW_PBE O 08Apr2002                   :
 energy of atom  3       EATOM= -432.3788
 kinetic energy error for atom=    0.0224 (will be added to EATOM!!)
  PAW_PBE Si 05Jan2001                  :
 energy of atom  4       EATOM= -103.0669
 kinetic energy error for atom=    0.0006 (will be added to EATOM!!)
  PAW_PBE W 08Apr2002                   :
 energy of atom  5       EATOM= -204.6103
 kinetic energy error for atom=    0.0017 (will be added to EATOM!!)


 POSCAR:  C  H  O Si  W                          
  positions in direct lattice
  velocities in cartesian coordinates
 exchange correlation table for  LEXCH =        9
   RHO(1)=    0.500       N(1)  =     2000
   RHO(2)=  100.500       N(2)  =     4000

 VTST: version 3.2, (02/03/18)

 CHAIN: initializing optimizer
 
 OPT: Using Quick-Min optimizer
 OPT: QM, Init
 OPT: QM, MAXMOVE       0.200000
 OPT: QM, TIMESTEP      0.100000
 
 CHAIN: Read ICHAIN            0
 CHAIN: Running the NEB
 NEB:          SPRING     -5.000000
 NEB:          LCLIMB      T
 NEB:     LTANGENTOLD      F
 NEB:           LDNEB      F
 NEB:        LDNEBORG      F
 NEB:        LNEBCELL      F
 NEB:          EFIRST      0.000000
 NEB:           ELAST      0.000000

 POSCAR:  C  H  O Si  W                          
  positions in cartesian coordinates
  No initial velocities read in

 POSCAR:  C  H  O Si  W                          
  positions in cartesian coordinates
  No initial velocities read in



--------------------------------------------------------------------------------------------------------


 ion  position               nearest neighbor table
   1  0.510  0.609  0.768-  49 1.10  50 1.29   3 1.54   2 1.75 277 2.21
   2  0.537  0.520  0.764-  50 1.30 211 1.36   4 1.52   1 1.75 277 2.07
   3  0.542  0.683  0.761-  52 1.10  53 1.10  51 1.10   1 1.54
   4  0.526  0.462  0.804-  54 1.10  56 1.10  55 1.10   2 1.52
   5  0.762  0.159  0.651- 131 0.97
   6  0.926  0.334  0.356-  79 0.98
   7  0.793  0.262  0.373- 114 0.97
   8  0.975  0.999  0.325- 123 0.97
   9  0.626  0.019  0.375- 125 0.98
  10  0.821  0.050  0.369- 143 0.97
  11  0.750  0.196  0.458- 181 0.98
  12  0.915  0.305  0.510- 186 0.97
  13  0.583  0.359  0.306- 191 0.97
  14  0.892  0.391  0.616-  97 0.98
  15  0.590  0.416  0.614- 142 0.97
  16  0.593  0.926  0.578- 184 0.99
  17  0.034  0.394  0.652- 190 0.97
  18  0.935  0.475  0.454- 179 0.98
  19  0.746  0.585  0.422-  93 1.00
  20  0.799  0.439  0.635- 171 0.97
  21  0.591  0.624  0.378- 105 0.99
  22  0.718  0.701  0.383- 128 0.99
  23  0.841  0.598  0.420- 134 0.98
  24  0.005  0.659  0.358- 139 0.97
  25  0.828  0.768  0.468- 180 0.99
  26  0.876  0.653  0.722-  59 0.97
  27  0.520  0.041  0.422- 141 0.99
  28  0.223  0.035  0.393- 182 1.00
  29  0.216  0.293  0.319- 197 0.99
  30  0.158  0.385  0.279- 188 0.97
  31  0.342  0.211  0.331- 189 0.98
  32  0.223  0.101  0.323- 196 0.97
  33  0.511  0.879  0.547- 199 0.97
  34  0.385  0.300  0.648-  84 0.97
  35  0.245  0.148  0.598- 135 0.98
  36  0.315  0.542  0.442-  58 0.99
  37  0.409  0.494  0.406- 147 0.98
  38  0.398  0.848  0.389- 185 0.97
  39  0.244  0.711  0.294- 193 0.97
  40  0.312  0.474  0.369- 194 0.98
  41  0.405  0.639  0.339- 195 0.97
  42  0.139  0.543  0.352- 187 0.98
  43  0.593  0.753  0.352-  88 0.97
  44  0.469  0.917  0.444- 198 0.99
  45  0.121  0.379  0.612- 107 0.97
  46  0.072  0.720  0.646- 138 0.97
  47  0.244  0.439  0.682- 183 0.97
  48  0.245  0.871  0.669- 192 0.97
  49  0.476  0.609  0.796-   1 1.10
  50  0.551  0.577  0.791-   1 1.29   2 1.30
  51  0.551  0.710  0.797-   3 1.10
  52  0.515  0.718  0.738-   3 1.10
  53  0.583  0.674  0.741-   3 1.10
  54  0.519  0.487  0.841-   4 1.10
  55  0.487  0.430  0.794-   4 1.10
  56  0.562  0.424  0.806-   4 1.10
  57  0.369  0.704  0.439- 231 1.66 266 1.68
  58  0.347  0.559  0.420-  36 0.99 266 1.67
  59  0.861  0.621  0.696-  26 0.97 237 1.64
  60  0.349  0.011  0.531- 242 1.68 275 1.70
  61  0.033  0.987  0.529- 257 1.63 268 1.66
  62  0.636  0.134  0.489- 235 1.60 224 1.65
  63  0.069  0.107  0.395- 223 1.64 215 1.65
  64  0.452  0.185  0.421- 240 1.65 221 1.65
  65  0.806  0.269  0.483- 239 1.67 236 1.69
  66  0.974  0.237  0.598- 217 1.63 247 1.65
  67  0.275  0.354  0.449- 263 1.65 273 1.66
  68  0.556  0.830  0.442- 244 1.51 271 1.66
  69  0.392  0.026  0.620- 261 1.65 275 1.66
  70  0.178  0.405  0.405- 263 1.66 238 1.67
  71  0.866  0.740  0.637- 241 1.64 237 1.65
  72  0.866  0.022  0.467- 233 1.60 248 1.65
  73  0.301  0.816  0.458- 231 1.65 245 1.67
  74  0.422  0.316  0.380- 240 1.67 260 1.67
  75  0.811  0.520  0.520- 267 1.63 214 1.64
  76  0.983  0.127  0.521- 257 1.68 217 1.69
  77  0.515  0.518  0.630- 276 1.65 277 2.04
  78  0.035  0.975  0.429- 268 1.64 215 1.65
  79  0.963  0.358  0.351-   6 0.98 216 1.65
  80  0.070  0.391  0.376- 216 1.64 238 1.65
  81  0.208  0.784  0.395- 245 1.66 255 1.67
  82  0.039  0.474  0.499- 270 1.64 243 1.65
  83  0.238  0.341  0.588- 251 1.63 228 1.63
  84  0.397  0.249  0.644-  34 0.97 222 1.64
  85  0.455  0.617  0.580- 253 1.68 276 1.68
  86  0.909  0.804  0.557- 241 1.64 220 1.66
  87  0.869  0.163  0.442- 248 1.64 236 1.65
  88  0.573  0.723  0.376-  43 0.97 244 1.68
  89  0.142  0.214  0.376- 269 1.65 223 1.65
  90  0.349  0.823  0.607- 213 1.62 254 1.64
  91  0.911  0.900  0.483- 233 1.62 220 1.66
  92  0.061  0.592  0.442- 270 1.66 212 1.67
  93  0.708  0.610  0.420-  19 1.00 226 1.67
  94  0.075  0.872  0.483- 268 1.50 250 1.65
  95  0.700  0.883  0.433- 225 1.53 258 1.65
  96  0.730  0.104  0.543- 224 1.64 259 1.64
  97  0.919  0.357  0.632-  14 0.98 247 1.63
  98  0.735  0.907  0.613- 232 1.66 229 1.68
  99  0.625  0.583  0.486- 234 1.58 226 1.68
 100  0.557  0.685  0.467- 244 1.52 234 1.63
 101  0.426  0.301  0.555- 222 1.68 265 1.69
 102  0.978  0.783  0.477- 250 1.65 220 1.65
 103  0.654  0.650  0.633- 272 1.64 218 1.67
 104  0.397  0.801  0.516- 231 1.66 213 1.66
 105  0.603  0.573  0.386-  21 0.99 226 1.65
 106  0.720  0.686  0.557- 256 1.62 272 1.64
 107  0.146  0.421  0.619-  45 0.97 228 1.64
 108  0.066  0.603  0.542- 270 1.63 274 1.64
 109  0.818  0.940  0.536- 233 1.65 232 1.67
 110  0.828  0.411  0.452- 239 1.65 214 1.65
 111  0.528  0.350  0.530- 265 1.62 246 1.63
 112  0.736  0.554  0.595- 272 1.66 267 1.66
 113  0.557  0.228  0.395- 252 1.59 221 1.64
 114  0.806  0.312  0.383-   7 0.97 239 1.67
 115  0.237  0.008  0.508- 242 1.58 227 1.67
 116  0.692  0.832  0.541- 256 1.64 229 1.64
 117  0.923  0.005  0.553- 257 1.65 233 1.65
 118  0.526  0.373  0.399- 252 1.45 260 1.66
 119  0.468  0.044  0.546- 261 1.69 262 1.70
 120  0.838  0.150  0.540- 236 1.66 259 1.66
 121  0.538  0.172  0.486- 235 1.61 221 1.67
 122  0.350  0.242  0.440- 273 1.63 240 1.65
 123  0.012  0.018  0.335-   8 0.97 215 1.65
 124  0.459  0.642  0.676- 253 1.65 277 2.02
 125  0.655  0.981  0.379-   9 0.98 225 1.66
 126  0.076  0.741  0.436- 212 1.65 250 1.66
 127  0.456  0.458  0.554- 276 1.69 265 1.69
 128  0.719  0.756  0.380-  22 0.99 258 1.65
 129  0.448  0.757  0.602- 213 1.62 253 1.64
 130  0.753  0.765  0.476- 256 1.63 258 1.69
 131  0.780  0.176  0.621-   5 0.97 259 1.64
 132  0.993  0.363  0.448- 243 1.66 216 1.68
 133  0.535  0.562  0.532- 234 1.65 276 1.65
 134  0.817  0.554  0.423-  23 0.98 214 1.69
 135  0.236  0.200  0.605-  35 0.98 251 1.62
 136  0.204  0.886  0.471- 227 1.50 245 1.63
 137  0.240  0.614  0.522- 230 1.65 219 1.66
 138  0.061  0.680  0.624-  46 0.97 274 1.63
 139  0.046  0.658  0.354-  24 0.97 212 1.65
 140  0.800  0.034  0.606- 232 1.66 259 1.68
 141  0.538  0.083  0.405-  27 0.99 221 1.66
 142  0.604  0.368  0.605-  15 0.97 246 1.64
 143  0.862  0.059  0.369-  10 0.97 248 1.66
 144  0.095  0.204  0.467- 249 1.62 223 1.65
 145  0.172  0.259  0.530- 249 1.61 251 1.63
 146  0.641  0.760  0.455- 244 1.65 258 1.66
 147  0.437  0.465  0.386-  37 0.98 260 1.66
 148  0.574  0.112  0.570- 262 1.62 235 1.65
 149  0.151  0.649  0.389- 255 1.68 212 1.68
 150  0.268  0.658  0.392- 266 1.65 255 1.67
 151  0.440  0.377  0.470- 265 1.65 260 1.69
 152  0.238  0.214  0.430- 269 1.65 273 1.67
 153  0.073  0.204  0.562- 249 1.64 217 1.64
 154  0.844  0.601  0.599- 237 1.66 267 1.66
 155  0.621  0.335  0.411- 264 1.65 252 1.66
 156  0.603  0.947  0.467- 271 1.29 225 1.67
 157  0.031  0.250  0.389- 216 1.66 223 1.66
 158  0.608  0.250  0.548- 235 1.62 246 1.64
 159  0.133  0.994  0.479- 268 1.65 227 1.66
 160  0.080  0.335  0.512- 243 1.64 249 1.65
 161  0.373  0.158  0.569- 275 1.63 222 1.69
 162  0.066  0.751  0.536- 250 1.63 274 1.63
 163  0.666  0.471  0.430- 226 1.65 264 1.65
 164  0.799  0.785  0.564- 256 1.61 241 1.63
 165  0.704  0.012  0.470- 224 1.65 225 1.66
 166  0.598  0.690  0.553- 234 1.63 218 1.63
 167  0.723  0.349  0.452- 239 1.63 264 1.64
 168  0.977  0.370  0.547- 243 1.64 247 1.67
 169  0.158  0.684  0.570- 230 1.63 274 1.65
 170  0.633  0.382  0.508- 246 1.63 264 1.65
 171  0.821  0.453  0.606-  20 0.97 267 1.65
 172  0.959  0.082  0.417- 248 1.64 215 1.65
 173  0.282  0.251  0.519- 273 1.62 251 1.65
 174  0.249  0.498  0.461- 219 1.66 263 1.71
 175  0.271  0.904  0.568- 242 1.64 254 1.65
 176  0.204  0.741  0.487- 230 1.63 245 1.66
 177  0.147  0.531  0.493- 219 1.63 270 1.65
 178  0.225  0.479  0.557- 219 1.61 228 1.63
 179  0.911  0.508  0.474-  18 0.98 214 1.65
 180  0.870  0.760  0.464-  25 0.99 220 1.65
 181  0.738  0.148  0.445-  11 0.98 224 1.66
 182  0.222  0.985  0.408-  28 1.00 227 1.64
 183  0.252  0.458  0.649-  47 0.97 228 1.65
 184  0.630  0.938  0.593-  16 0.99 229 1.62
 185  0.410  0.844  0.423-  38 0.97 231 1.68
 186  0.918  0.251  0.508-  12 0.97 236 1.65
 187  0.133  0.499  0.332-  42 0.98 238 1.65
 188  0.155  0.359  0.311-  30 0.97 238 1.69
 189  0.373  0.186  0.348-  31 0.98 240 1.66
 190  0.035  0.348  0.633-  17 0.97 247 1.66
 191  0.573  0.312  0.320-  13 0.97 252 1.66
 192  0.244  0.826  0.650-  48 0.97 254 1.64
 193  0.207  0.704  0.310-  39 0.97 255 1.65
 194  0.275  0.447  0.367-  40 0.98 263 1.66
 195  0.365  0.653  0.342-  41 0.97 266 1.67
 196  0.226  0.111  0.358-  32 0.97 269 1.69
 197  0.241  0.251  0.329-  29 0.99 269 1.66
 198  0.501  0.947  0.455-  44 0.99 271 1.60
 199  0.550  0.883  0.534-  33 0.97 271 1.67
 200  0.544  0.704  0.633- 218 1.64 253 1.68
 201  0.479  0.176  0.595- 262 1.65 222 1.66
 202  0.262  0.749  0.569- 254 1.65 230 1.65
 203  0.443  0.900  0.582- 261 1.66 213 1.69
 204  0.765  0.672  0.650- 272 1.65 237 1.66
 205  0.845  0.887  0.623- 241 1.66 232 1.68
 206  0.640  0.795  0.621- 218 1.67 229 1.70
 207  0.008  0.088  0.603- 257 1.69 217 1.69
 208  0.285  0.056  0.594- 275 1.69 242 1.70
 209  0.504  0.026  0.629- 261 1.69 262 1.70
 210  0.433  0.489  0.712- 277 1.72
 211  0.570  0.509  0.723-   2 1.36 277 2.05
 212  0.083  0.662  0.406- 139 1.65 126 1.65  92 1.67 149 1.68 270 3.13
 213  0.409  0.819  0.575-  90 1.62 129 1.62 104 1.66 203 1.69 254 3.06
 214  0.842  0.497  0.468-  75 1.64 110 1.65 179 1.65 134 1.69
 215  0.017  0.046  0.394-  63 1.65 172 1.65  78 1.65 123 1.65 268 3.11 223 3.13
 216  0.015  0.339  0.391-  80 1.64  79 1.65 157 1.66 132 1.68 243 3.11 223 3.11
 217  0.009  0.170  0.572-  66 1.63 153 1.64  76 1.69 207 1.69 257 2.39 249 3.04 247 3.08
 218  0.609  0.713  0.610- 166 1.63 200 1.64 103 1.67 206 1.67 272 2.87 234 3.14
 219  0.214  0.531  0.510- 178 1.61 177 1.63 137 1.66 174 1.66 230 3.10 263 3.14
 220  0.915  0.811  0.496- 102 1.65 180 1.65  86 1.66  91 1.66 233 2.99 241 3.03
 221  0.521  0.166  0.426- 113 1.64  64 1.65 141 1.66 121 1.67 252 3.08 235 3.13
 222  0.419  0.223  0.589-  84 1.64 201 1.66 101 1.68 161 1.69 262 3.14 275 3.14
 223  0.083  0.194  0.407-  63 1.64 144 1.65  89 1.65 157 1.66 216 3.11 215 3.13 269 3.14
 224  0.702  0.100  0.487-  96 1.64 165 1.65  62 1.65 181 1.66 235 3.09 225 3.10 259 3.15
 225  0.665  0.953  0.437-  95 1.53 165 1.66 125 1.66 156 1.67 271 2.83 258 3.06 224 3.10
 226  0.650  0.559  0.430- 105 1.65 163 1.65  93 1.67  99 1.68 234 3.07
 227  0.198  0.968  0.464- 136 1.50 182 1.64 159 1.66 115 1.67 245 3.01 242 3.06 268 3.07
 228  0.214  0.423  0.604-  83 1.63 178 1.63 107 1.64 183 1.65
 229  0.673  0.869  0.594- 184 1.62 116 1.64  98 1.68 206 1.70 256 2.90
 230  0.216  0.697  0.539- 176 1.63 169 1.63 202 1.65 137 1.65 245 3.09 219 3.10 274 3.13
 231  0.369  0.790  0.459-  73 1.65 104 1.66  57 1.66 185 1.68
 232  0.797  0.943  0.595- 140 1.66  98 1.66 109 1.67 205 1.68 241 2.85 233 2.99 259 3.14
 233  0.879  0.967  0.512-  72 1.60  91 1.62 109 1.65 117 1.65 220 2.99 232 2.99 257 3.05 248 3.14

 234  0.576  0.629  0.512-  99 1.58 166 1.63 100 1.63 133 1.65 244 3.01 226 3.07 218 3.14 276 3.15

 235  0.590  0.170  0.525-  62 1.60 121 1.61 158 1.62 148 1.65 262 2.85 224 3.09 246 3.11 221 3.13

 236  0.858  0.207  0.495- 186 1.65  87 1.65 120 1.66  65 1.69 248 3.07 239 3.15
 237  0.835  0.659  0.646-  59 1.64  71 1.65 154 1.66 204 1.66 272 2.93 267 3.00 241 3.00
 238  0.134  0.416  0.357- 187 1.65  80 1.65  70 1.67 188 1.69 263 3.11
 239  0.791  0.335  0.442- 167 1.63 110 1.65 114 1.67  65 1.67 236 3.15
 240  0.399  0.233  0.396-  64 1.65 122 1.65 189 1.66  74 1.67 260 3.07
 241  0.856  0.805  0.597- 164 1.63  71 1.64  86 1.64 205 1.66 232 2.85 237 3.00 220 3.03
 242  0.283  0.989  0.550- 115 1.58 175 1.64  60 1.68 208 1.70 275 2.38 227 3.06
 243  0.023  0.386  0.502- 160 1.64 168 1.64  82 1.65 132 1.66 247 3.10 216 3.11 249 3.14
 244  0.575  0.751  0.436-  68 1.51 100 1.52 146 1.65  88 1.68 234 3.01 271 3.06 258 3.10
 245  0.230  0.808  0.452- 136 1.63 176 1.66  81 1.66  73 1.67 255 2.97 227 3.01 230 3.09
 246  0.594  0.338  0.548- 111 1.63 170 1.63 142 1.64 158 1.64 235 3.11 264 3.15
 247  0.975  0.328  0.602-  97 1.63  66 1.65 190 1.66 168 1.67 217 3.08 243 3.10
 248  0.889  0.081  0.424-  87 1.64 172 1.64  72 1.65 143 1.66 236 3.07 233 3.14
 249  0.105  0.250  0.518- 145 1.61 144 1.62 153 1.64 160 1.65 217 3.04 243 3.14
 250  0.048  0.788  0.483- 162 1.63 102 1.65  94 1.65 126 1.66 268 3.05
 251  0.232  0.261  0.561- 135 1.62  83 1.63 145 1.63 173 1.65 273 3.02
 252  0.561  0.313  0.381- 118 1.45 113 1.59 155 1.66 191 1.66 260 2.87 221 3.08
 253  0.476  0.680  0.622- 129 1.64 124 1.65  85 1.68 200 1.68 276 2.93 277 3.25
 254  0.280  0.826  0.598-  90 1.64 192 1.64 202 1.65 175 1.65 213 3.06
 255  0.209  0.699  0.372- 193 1.65 150 1.67  81 1.67 149 1.68 245 2.97
 256  0.740  0.766  0.536- 164 1.61 106 1.62 130 1.63 116 1.64 229 2.90 258 2.90 272 3.07
 257  0.986  0.045  0.551-  61 1.63 117 1.65  76 1.68 207 1.69 217 2.39 233 3.05
 258  0.703  0.792  0.434-  95 1.65 128 1.65 146 1.66 130 1.69 256 2.90 225 3.06 244 3.10
 259  0.788  0.114  0.577-  96 1.64 131 1.64 120 1.66 140 1.68 232 3.14 224 3.15
 260  0.456  0.384  0.409- 147 1.66 118 1.66  74 1.67 151 1.69 252 2.87 240 3.07
 261  0.450  0.989  0.595-  69 1.65 203 1.66 119 1.69 209 1.69 262 2.36 275 2.74
 262  0.509  0.095  0.586- 148 1.62 201 1.65 119 1.70 209 1.70 261 2.36 235 2.85 222 3.14
 263  0.244  0.426  0.421-  67 1.65  70 1.66 194 1.66 174 1.71 238 3.11 219 3.14
 264  0.659  0.385  0.450- 167 1.64 155 1.65 163 1.65 170 1.65 246 3.15
 265  0.461  0.373  0.529- 111 1.62 151 1.65 101 1.69 127 1.69
 266  0.337  0.645  0.399- 150 1.65 195 1.67  58 1.67  57 1.68
 267  0.803  0.532  0.580-  75 1.63 171 1.65 154 1.66 112 1.66 272 2.90 237 3.00
 268  0.069  0.954  0.481-  94 1.50  78 1.64 159 1.65  61 1.66 250 3.05 227 3.07 215 3.11
 269  0.212  0.200  0.374-  89 1.65 152 1.65 197 1.66 196 1.69 273 3.12 223 3.14
 270  0.078  0.549  0.495- 108 1.63  82 1.64 177 1.65  92 1.66 274 3.09 212 3.13
 271  0.558  0.908  0.475- 156 1.29 198 1.60  68 1.66 199 1.67 225 2.83 244 3.06
 272  0.718  0.640  0.610- 103 1.64 106 1.64 204 1.65 112 1.66 218 2.87 267 2.90 237 2.93 256 3.07

 273  0.287  0.265  0.459- 173 1.62 122 1.63  67 1.66 152 1.67 251 3.02 269 3.12
 274  0.088  0.680  0.568- 162 1.63 138 1.63 108 1.64 169 1.65 270 3.09 230 3.13
 275  0.354  0.072  0.578- 161 1.63  69 1.66 208 1.69  60 1.70 242 2.38 261 2.74 222 3.14
 276  0.488  0.535  0.574- 133 1.65  77 1.65  85 1.68 127 1.69 253 2.93 234 3.15
 277  0.491  0.545  0.701- 210 1.72 124 2.02  77 2.04 211 2.05   2 2.07   1 2.21 253 3.25

  LATTYP: Found a simple orthorhombic cell.
 ALAT       =    18.1212369514
 B/A-ratio  =     1.2919258579
 C/A-ratio  =     1.4835282260
  
  Lattice vectors:
  
 A1 = (   0.0000000000, -18.1212369514,   0.0000000000)
 A2 = ( -23.4112945954,   0.0000000000,   0.0000000000)
 A3 = (   0.0000000000,   0.0000000000, -26.8833665073)


Analysis of symmetry for initial positions (statically):
=====================================================================
 Subroutine PRICEL returns:
 Original cell was already a primitive cell.
 

 Routine SETGRP: Setting up the symmetry group for a 
 simple orthorhombic supercell.


 Subroutine GETGRP returns: Found  1 space group operations
 (whereof  1 operations were pure point group operations)
 out of a pool of  8 trial point group operations.


The static configuration has the point symmetry C_1 .


Analysis of symmetry for dynamics (positions and initial velocities):
=====================================================================
 Subroutine PRICEL returns:
 Original cell was already a primitive cell.
 

 Routine SETGRP: Setting up the symmetry group for a 
 simple orthorhombic supercell.


 Subroutine GETGRP returns: Found  1 space group operations
 (whereof  1 operations were pure point group operations)
 out of a pool of  8 trial point group operations.


The dynamic configuration has the point symmetry C_1 .


Analysis of constrained symmetry for selective dynamics:
=====================================================================
 Subroutine PRICEL returns:
 Original cell was already a primitive cell.
 

 Routine SETGRP: Setting up the symmetry group for a 
 simple orthorhombic supercell.


 Subroutine GETGRP returns: Found  1 space group operations
 (whereof  1 operations were pure point group operations)
 out of a pool of  8 trial point group operations.


The constrained configuration has the point symmetry C_1 .


 Subroutine INISYM returns: Found  1 space group operations
 (whereof  1 operations are pure point group operations),
 and found     1 'primitive' translations



 KPOINTS: KPOINTS created by Atomic Simulation Env

Automatic generation of k-mesh.
Space group operators:
 irot       det(A)        alpha          n_x          n_y          n_z        tau_x        tau_y        tau_z
    1     1.000000     0.000000     1.000000     0.000000     0.000000     0.000000     0.000000     0.000000
 
 Subroutine IBZKPT returns following result:
 ===========================================
 
 Found      5 irreducible k-points:
 
 Following reciprocal coordinates:
            Coordinates               Weight
  0.000000  0.000000  0.000000      1.000000
  0.333333  0.000000  0.000000      2.000000
  0.000000  0.333333  0.000000      2.000000
  0.333333  0.333333  0.000000      2.000000
 -0.333333  0.333333  0.000000      2.000000
 
 Following cartesian coordinates:
            Coordinates               Weight
  0.000000  0.000000  0.000000      1.000000
  0.014238  0.000000  0.000000      2.000000
  0.000000  0.018395  0.000000      2.000000
  0.014238  0.018395  0.000000      2.000000
 -0.014238  0.018395  0.000000      2.000000
 


--------------------------------------------------------------------------------------------------------




 Dimension of arrays:
   k-points           NKPTS =      5   k-points in BZ     NKDIM =      5   number of bands    NBANDS=    772
   number of dos      NEDOS =    301   number of ions     NIONS =    277
   non local maximal  LDIM  =      6   non local SUM 2l+1 LMDIM =     18
   total plane-waves  NPLWV = ******
   max r-space proj   IRMAX =   2748   max aug-charges    IRDMAX=   9808
   dimension x,y,z NGX =   128 NGY =  100 NGZ =  150
   dimension x,y,z NGXF=   256 NGYF=  200 NGZF=  300
   support grid    NGXF=   256 NGYF=  200 NGZF=  300
   ions per type =               4  52 155  65   1
   NGX,Y,Z   is equivalent  to a cutoff of   9.09,  9.17,  9.28 a.u.
   NGXF,Y,Z  is equivalent  to a cutoff of  18.18, 18.35, 18.55 a.u.

 SYSTEM =  unknown system                          
 POSCAR =   C  H  O Si  W                          

 Startparameter for this run:
   NWRITE =      2    write-flag & timer
   PREC   = normal    normal or accurate (medium, high low for compatibility)
   ISTART =      0    job   : 0-new  1-cont  2-samecut
   ICHARG =      2    charge: 1-file 2-atom 10-const
   ISPIN  =      1    spin polarized calculation?
   LNONCOLLINEAR =      F non collinear calculations
   LSORBIT =      F    spin-orbit coupling
   INIWAV =      1    electr: 0-lowe 1-rand  2-diag
   LASPH  =      T    aspherical Exc in radial PAW
   METAGGA=      F    non-selfconsistent MetaGGA calc.

 Electronic Relaxation 1
   ENCUT  =  500.0 eV  36.75 Ry    6.06 a.u.  42.68 33.04 49.01*2*pi/ulx,y,z
   ENINI  =  500.0     initial cutoff
   ENAUG  =  644.9 eV  augmentation charge cutoff
   NELM   =     60;   NELMIN=  2; NELMDL=  0     # of ELM steps 
   EDIFF  = 0.1E-03   stopping-criterion for ELM
   LREAL  =      T    real-space projection
   NLSPLINE    = F    spline interpolate recip. space projectors
   LCOMPAT=      F    compatible to vasp.4.4
   GGA_COMPAT  = T    GGA compatible to vasp.4.4-vasp.4.6
   LMAXPAW     = -100 max onsite density
   LMAXMIX     =    2 max onsite mixed and CHGCAR
   VOSKOWN=      0    Vosko Wilk Nusair interpolation
   ROPT   =   -0.00050  -0.00050  -0.00050  -0.00050
   ROPT   =   -0.00050
 Ionic relaxation
   EDIFFG = -.5E-01   stopping-criterion for IOM
   NSW    =    200    number of steps for IOM
   NBLOCK =      1;   KBLOCK =    200    inner block; outer block 
   IBRION =      3    ionic relax: 0-MD 1-quasi-New 2-CG
   NFREE  =      0    steps in history (QN), initial steepest desc. (CG)
   ISIF   =      0    stress and relaxation
   IWAVPR =     11    prediction:  0-non 1-charg 2-wave 3-comb
   ISYM   =      2    0-nonsym 1-usesym 2-fastsym
   LCORR  =      T    Harris-Foulkes like correction to forces

   POTIM  = 0.0000    time-step for ionic-motion
   TEIN   =    0.0    initial temperature
   TEBEG  =    0.0;   TEEND  =   0.0 temperature during run
   SMASS  =  -3.00    Nose mass-parameter (am)
   estimated Nose-frequenzy (Omega)   =  0.10E-29 period in steps =  0.00 mass=  -0.125E-25a.u.
   SCALEE = 1.0000    scale energy and forces
   NPACO  =    256;   APACO  = 16.0  distance and # of slots for P.C.
   PSTRESS=    0.0 pullay stress

  Mass of Ions in am
   POMASS =  12.01  1.00 16.00 28.09183.85
  Ionic Valenz
   ZVAL   =   4.00  1.00  6.00  4.00  6.00
  Atomic Wigner-Seitz radii
   RWIGS  =  -1.00 -1.00 -1.00 -1.00 -1.00
  virtual crystal weights 
   VCA    =   1.00  1.00  1.00  1.00  1.00
   NELECT =    1264.0000    total number of electrons
   NUPDOWN=      -1.0000    fix difference up-down

 DOS related values:
   EMIN   =  10.00;   EMAX   =-10.00  energy-range for DOS
   EFERMI =   0.00
   ISMEAR =     0;   SIGMA  =   0.20  broadening in eV -4-tet -1-fermi 0-gaus

 Electronic relaxation 2 (details)
   IALGO  =     68    algorithm
   LDIAG  =      T    sub-space diagonalisation (order eigenvalues)
   LSUBROT=      F    optimize rotation matrix (better conditioning)
   TURBO    =      0    0=normal 1=particle mesh
   IRESTART =      0    0=no restart 2=restart with 2 vectors
   NREBOOT  =      0    no. of reboots
   NMIN     =      0    reboot dimension
   EREF     =   0.00    reference energy to select bands
   IMIX   =      4    mixing-type and parameters
     AMIX     =   0.40;   BMIX     =  1.00
     AMIX_MAG =   1.60;   BMIX_MAG =  1.00
     AMIN     =   0.10
     WC   =   100.;   INIMIX=   1;  MIXPRE=   1;  MAXMIX= -45

 Intra band minimization:
   WEIMIN = 0.0010     energy-eigenvalue tresh-hold
   EBREAK =  0.32E-07  absolut break condition
   DEPER  =   0.30     relativ break condition  

   TIME   =   0.40     timestep for ELM

  volume/ion in A,a.u.               =      41.17       277.85
  Fermi-wavevector in a.u.,A,eV,Ry     =   0.786366  1.486017  8.413461  0.618372
  Thomas-Fermi vector in A             =   1.890890

 Write flags
   LWAVE        =      F    write WAVECAR
   LDOWNSAMPLE  =      F    k-point downsampling of WAVECAR
   LCHARG       =      F    write CHGCAR
   LVTOT        =      F    write LOCPOT, total local potential
   LVHAR        =      F    write LOCPOT, Hartree potential only
   LELF         =      F    write electronic localiz. function (ELF)
   LORBIT       =      0    0 simple, 1 ext, 2 COOP (PROOUT), +10 PAW based schemes


 Dipole corrections
   LMONO  =      F    monopole corrections only (constant potential shift)
   LDIPOL =      T    correct potential (dipole corrections)
   IDIPOL =      3    1-x, 2-y, 3-z, 4-all directions 
   EPSILON=  1.0000000 bulk dielectric constant

 Exchange correlation treatment:
   GGA     =    RP    GGA type
   LEXCH   =     9    internal setting for exchange type
   VOSKOWN=      0    Vosko Wilk Nusair interpolation
   LHFCALC =     F    Hartree Fock is set to
   LHFONE  =     F    Hartree Fock one center treatment
   AEXX    =    0.0000 exact exchange contribution

 Linear response parameters
   LEPSILON=     F    determine dielectric tensor
   LRPA    =     F    only Hartree local field effects (RPA)
   LNABLA  =     F    use nabla operator in PAW spheres
   LVEL    =     F    velocity operator in full k-point grid
   LINTERFAST=   F  fast interpolation
   KINTER  =     0    interpolate to denser k-point grid
   CSHIFT  =0.1000    complex shift for real part using Kramers Kronig
   OMEGAMAX=  -1.0    maximum frequency
   DEG_THRESHOLD= 0.2000000E-02 threshold for treating states as degnerate
   RTIME   =   -0.100 relaxation time in fs
  (WPLASMAI=    0.000 imaginary part of plasma frequency in eV, 0.658/RTIME)
   DFIELD  = 0.0000000 0.0000000 0.0000000 field for delta impulse in time

 Orbital magnetization related:
   ORBITALMAG=     F  switch on orbital magnetization
   LCHIMAG   =     F  perturbation theory with respect to B field
   DQ        =  0.001000  dq finite difference perturbation B field
   LLRAUG    =     F  two centre corrections for induced B field



--------------------------------------------------------------------------------------------------------


 quickmin algorithm: (dynamic with friction)
   using selective dynamics as specified on POSCAR
 charge density and potential will be updated during run
 non-spin polarized calculation
 RMM-DIIS sequential band-by-band and
  variant of blocked Davidson during initial phase
 perform sub-space diagonalisation
    before iterative eigenvector-optimisation
 modified Broyden-mixing scheme, WC =      100.0
 initial mixing is a Kerker type mixing with AMIX =  0.4000 and BMIX =      1.0000
 Hartree-type preconditioning will be used
 using additional bands          140
 real space projection scheme for non local part
 use partial core corrections
 calculate Harris-corrections to forces   (improved forces if not selfconsistent)
 use gradient corrections 
 use of overlap-Matrix (Vanderbilt PP)
 Gauss-broadening in eV      SIGMA  =   0.20


--------------------------------------------------------------------------------------------------------


  energy-cutoff  :      500.00
  volume of cell :    11405.04
      direct lattice vectors                 reciprocal lattice vectors
    23.411294595  0.000000000  0.000000000     0.042714426  0.000000000  0.000000000
     0.000000000 18.121236951  0.000000000     0.000000000  0.055183871  0.000000000
     0.000000000  0.000000000 26.883366507     0.000000000  0.000000000  0.037197722

  length of vectors
    23.411294595 18.121236951 26.883366507     0.042714426  0.055183871  0.037197722



 k-points in units of 2pi/SCALE and weight: KPOINTS created by Atomic Simulation Env
   0.00000000  0.00000000  0.00000000       0.111
   0.01423814  0.00000000  0.00000000       0.222
   0.00000000  0.01839462  0.00000000       0.222
   0.01423814  0.01839462  0.00000000       0.222
  -0.01423814  0.01839462  0.00000000       0.222

 k-points in reciprocal lattice and weights: KPOINTS created by Atomic Simulation Env
   0.00000000  0.00000000  0.00000000       0.111
   0.33333333  0.00000000  0.00000000       0.222
   0.00000000  0.33333333  0.00000000       0.222
   0.33333333  0.33333333  0.00000000       0.222
  -0.33333333  0.33333333  0.00000000       0.222

 position of ions in fractional coordinates (direct lattice) 
   0.51023434  0.60937643  0.76817709
   0.53711976  0.51969410  0.76412030
   0.54245191  0.68257955  0.76100929
   0.52558882  0.46176461  0.80396312
   0.76215953  0.15889873  0.65108013
   0.92642768  0.33385283  0.35633493
   0.79333970  0.26246277  0.37345652
   0.97453911  0.99879247  0.32530279
   0.62573266  0.01865672  0.37523120
   0.82053840  0.05019053  0.36899263
   0.74999307  0.19636263  0.45803819
   0.91548934  0.30462092  0.50987050
   0.58349286  0.35944742  0.30592717
   0.89222705  0.39065214  0.61649488
   0.58965818  0.41639987  0.61377583
   0.59316310  0.92609277  0.57790302
   0.03404920  0.39401733  0.65159927
   0.93527051  0.47469810  0.45410146
   0.74613838  0.58549586  0.42248819
   0.79912342  0.43920336  0.63535327
   0.59110202  0.62386670  0.37803474
   0.71843379  0.70111666  0.38346059
   0.84115291  0.59761047  0.41959617
   0.00476455  0.65898202  0.35777830
   0.82835870  0.76754054  0.46794226
   0.87579931  0.65331751  0.72150104
   0.51999031  0.04074863  0.42170307
   0.22309457  0.03533871  0.39320502
   0.21637369  0.29303533  0.31923033
   0.15750105  0.38499010  0.27898292
   0.34154688  0.21076958  0.33077276
   0.22271586  0.10094280  0.32273843
   0.51136128  0.87941396  0.54668187
   0.38511884  0.30004504  0.64757407
   0.24486061  0.14824980  0.59777240
   0.31538097  0.54232034  0.44243467
   0.40895618  0.49391873  0.40569060
   0.39849950  0.84829748  0.38878680
   0.24420236  0.71061395  0.29432688
   0.31174138  0.47365958  0.36925764
   0.40547429  0.63946352  0.33881989
   0.13935762  0.54315752  0.35192946
   0.59326935  0.75317100  0.35239799
   0.46900683  0.91661134  0.44382838
   0.12149864  0.37943738  0.61155213
   0.07238321  0.71976315  0.64581212
   0.24387973  0.43883057  0.68231156
   0.24460994  0.87064586  0.66938805
   0.47638057  0.60880092  0.79637826
   0.55143591  0.57660866  0.79106154
   0.55122492  0.71014328  0.79666277
   0.51501416  0.71788718  0.73789476
   0.58271912  0.67448269  0.74070400
   0.51919654  0.48738383  0.84059322
   0.48710243  0.43008883  0.79430179
   0.56241197  0.42425444  0.80591732
   0.36894173  0.70353897  0.43900002
   0.34681565  0.55921774  0.42038813
   0.86066603  0.62082215  0.69611028
   0.34886974  0.01140861  0.53078736
   0.03312823  0.98717585  0.52852699
   0.63635548  0.13405242  0.48937667
   0.06864615  0.10744929  0.39511073
   0.45189954  0.18474620  0.42059728
   0.80588415  0.26883405  0.48316661
   0.97406601  0.23699960  0.59848114
   0.27476529  0.35435674  0.44851223
   0.55635417  0.83027516  0.44175101
   0.39195070  0.02574570  0.61981477
   0.17751724  0.40515232  0.40527312
   0.86572051  0.73978185  0.63749532
   0.86569601  0.02236080  0.46703846
   0.30104714  0.81612071  0.45792526
   0.42161095  0.31643609  0.37959630
   0.81071210  0.52040072  0.51995120
   0.98344332  0.12713550  0.52116979
   0.51497132  0.51838455  0.62976842
   0.03453641  0.97513163  0.42940526
   0.96303654  0.35837918  0.35125762
   0.06962669  0.39128964  0.37637178
   0.20829566  0.78382816  0.39536010
   0.03890126  0.47428579  0.49910875
   0.23838590  0.34136625  0.58799771
   0.39656539  0.24895400  0.64377279
   0.45488149  0.61665258  0.58029497
   0.90944693  0.80392237  0.55749706
   0.86912727  0.16322721  0.44227833
   0.57257679  0.72251572  0.37613173
   0.14242656  0.21430937  0.37597224
   0.34942897  0.82258523  0.60678925
   0.91099605  0.90023144  0.48317962
   0.06133801  0.59205558  0.44225348
   0.70833903  0.61035042  0.41995768
   0.07548726  0.87199068  0.48299416
   0.70046477  0.88273959  0.43263529
   0.73044536  0.10378206  0.54291119
   0.91917782  0.35680642  0.63216915
   0.73484936  0.90743695  0.61290978
   0.62512195  0.58257787  0.48637871
   0.55657330  0.68488691  0.46724942
   0.42639192  0.30110322  0.55517866
   0.97829009  0.78342750  0.47679564
   0.65356109  0.65002692  0.63344902
   0.39656739  0.80093561  0.51563881
   0.60269007  0.57284932  0.38567099
   0.71967172  0.68629054  0.55708041
   0.14602833  0.42138182  0.61870922
   0.06560004  0.60309555  0.54210134
   0.81840040  0.93975222  0.53636513
   0.82821553  0.41056901  0.45190334
   0.52797997  0.35002644  0.52991037
   0.73633391  0.55435440  0.59507840
   0.55743394  0.22761498  0.39490854
   0.80596408  0.31159644  0.38329286
   0.23744622  0.00843462  0.50791956
   0.69238278  0.83152379  0.54121232
   0.92340414  0.00476244  0.55307234
   0.52573722  0.37296499  0.39855594
   0.46790286  0.04375544  0.54625210
   0.83804991  0.14961563  0.53962512
   0.53790325  0.17160136  0.48623709
   0.35019344  0.24179260  0.43963639
   0.01176032  0.01759777  0.33524376
   0.45919309  0.64183334  0.67581684
   0.65496522  0.98058138  0.37922825
   0.07629334  0.74121013  0.43588102
   0.45558002  0.45770257  0.55426520
   0.71921944  0.75560472  0.37958300
   0.44770685  0.75689290  0.60205957
   0.75255106  0.76450845  0.47629548
   0.77993073  0.17595450  0.62061725
   0.99327462  0.36319734  0.44840298
   0.53500639  0.56208559  0.53187557
   0.81677759  0.55424561  0.42344221
   0.23642759  0.20003190  0.60473814
   0.20353331  0.88588519  0.47053363
   0.24006865  0.61417394  0.52221047
   0.06085174  0.68006847  0.62385330
   0.04607407  0.65753056  0.35417863
   0.80045896  0.03350740  0.60574719
   0.53799091  0.08288136  0.40450275
   0.60447689  0.36808198  0.60471373
   0.86154611  0.05926472  0.36920633
   0.09491131  0.20420671  0.46708233
   0.17170724  0.25887252  0.53037360
   0.64098865  0.75962259  0.45481558
   0.43678778  0.46495235  0.38641325
   0.57414910  0.11165773  0.57041161
   0.15143775  0.64859189  0.38895836
   0.26773979  0.65752140  0.39230630
   0.44025846  0.37738205  0.47032443
   0.23800967  0.21369500  0.42990119
   0.07324989  0.20379916  0.56218880
   0.84431556  0.60058481  0.59904737
   0.62117943  0.33512375  0.41090545
   0.60266699  0.94671054  0.46722346
   0.03138539  0.25047370  0.38899188
   0.60796814  0.24964135  0.54839869
   0.13279973  0.99353852  0.47948708
   0.07974628  0.33499728  0.51223777
   0.37266690  0.15801142  0.56875032
   0.06596646  0.75138968  0.53564058
   0.66648838  0.47056875  0.43001156
   0.79877917  0.78532305  0.56434309
   0.70383856  0.01239230  0.47018456
   0.59833698  0.68952561  0.55260918
   0.72284030  0.34886852  0.45166811
   0.97704046  0.36979230  0.54704639
   0.15778560  0.68443614  0.57014453
   0.63333384  0.38196695  0.50780070
   0.82076983  0.45332165  0.60607079
   0.95857820  0.08242692  0.41695300
   0.28231210  0.25099880  0.51861528
   0.24925755  0.49821676  0.46105570
   0.27080980  0.90417480  0.56800879
   0.20366815  0.74075704  0.48688872
   0.14712345  0.53125375  0.49254493
   0.22510847  0.47857741  0.55682110
   0.91141698  0.50792847  0.47371881
   0.86978818  0.75974398  0.46415352
   0.73812021  0.14801849  0.44522965
   0.22218344  0.98496506  0.40794682
   0.25157218  0.45806737  0.64936695
   0.63015145  0.93849531  0.59335189
   0.41022327  0.84424626  0.42343739
   0.91777135  0.25122216  0.50824515
   0.13254706  0.49871998  0.33227266
   0.15514768  0.35870713  0.31056042
   0.37300515  0.18609091  0.34795342
   0.03490032  0.34812731  0.63298074
   0.57268926  0.31205206  0.32009968
   0.24371017  0.82568673  0.64983032
   0.20737430  0.70358892  0.31036906
   0.27537441  0.44737517  0.36737583
   0.36535081  0.65277050  0.34222079
   0.22638085  0.11136469  0.35811888
   0.24120333  0.25126210  0.32934297
   0.50127293  0.94748549  0.45484168
   0.55024655  0.88250268  0.53419393
   0.54439389  0.70397162  0.63333540
   0.47866156  0.17596702  0.59532684
   0.26196845  0.74900815  0.56906100
   0.44341834  0.90020092  0.58225649
   0.76489096  0.67176324  0.64969038
   0.84483338  0.88734629  0.62277508
   0.63982518  0.79497956  0.62092161
   0.00792315  0.08827703  0.60305174
   0.28467493  0.05613718  0.59370963
   0.50366472  0.02576093  0.62852592
   0.43312043  0.48850880  0.71211154
   0.56977188  0.50885794  0.72274088
   0.08322528  0.66160417  0.40641308
   0.40852780  0.81927396  0.57532900
   0.84176382  0.49663699  0.46783897
   0.01708949  0.04566591  0.39361135
   0.01470021  0.33937414  0.39108141
   0.00942658  0.16972373  0.57231511
   0.60890350  0.71322320  0.61041805
   0.21404956  0.53128703  0.50966619
   0.91506213  0.81074481  0.49625454
   0.52057854  0.16563950  0.42598659
   0.41872981  0.22345581  0.58854135
   0.08345253  0.19435595  0.40698087
   0.70189793  0.10003013  0.48732303
   0.66505935  0.95322133  0.43747644
   0.65009874  0.55921093  0.43015089
   0.19846065  0.96766610  0.46399069
   0.21399628  0.42260105  0.60351746
   0.67322859  0.86869604  0.59447513
   0.21644087  0.69660561  0.53851958
   0.36878912  0.79031160  0.45920930
   0.79704916  0.94341782  0.59548155
   0.87949323  0.96728266  0.51198874
   0.57626464  0.62942852  0.51205153
   0.58977500  0.17017132  0.52536222
   0.85812234  0.20729710  0.49517595
   0.83488327  0.65909539  0.64567921
   0.13373852  0.41550277  0.35687228
   0.79065529  0.33512312  0.44187265
   0.39917610  0.23267871  0.39600320
   0.85563056  0.80548846  0.59650953
   0.28271439  0.98892893  0.54963560
   0.02307473  0.38563139  0.50224551
   0.57455938  0.75067395  0.43556436
   0.23024095  0.80778437  0.45196954
   0.59373961  0.33832717  0.54797910
   0.97547873  0.32778965  0.60246150
   0.88890636  0.08059287  0.42420019
   0.10484272  0.25027238  0.51785103
   0.04814566  0.78822096  0.48263019
   0.23204175  0.26129093  0.56094220
   0.56140781  0.31296914  0.38122611
   0.47622852  0.67955925  0.62202987
   0.28031881  0.82562753  0.59785574
   0.20850083  0.69858372  0.37179454
   0.74003756  0.76601273  0.53583903
   0.98627166  0.04526568  0.55051350
   0.70310456  0.79200202  0.43426040
   0.78822368  0.11422331  0.57662411
   0.45631390  0.38363547  0.40928789
   0.44983513  0.98927205  0.59471748
   0.50851353  0.09458959  0.58567475
   0.24424715  0.42559019  0.42094710
   0.65852534  0.38518598  0.45034791
   0.46121036  0.37252554  0.52880901
   0.33729937  0.64512641  0.39908301
   0.80290127  0.53230829  0.57954309
   0.06920979  0.95404303  0.48050551
   0.21190758  0.19963819  0.37359659
   0.07823286  0.54916887  0.49468762
   0.55757019  0.90752397  0.47473025
   0.71773178  0.63984547  0.60960308
   0.28664212  0.26528561  0.45911077
   0.08760928  0.68010892  0.56768453
   0.35375904  0.07242238  0.57846277
   0.48839578  0.53525822  0.57395156
   0.49087928  0.54461936  0.70067730

 position of ions in cartesian coordinates  (Angst):
  11.94524639 11.04265462 20.65118617
  12.57466897  9.41749998 20.54212621
  12.69950150 12.36918582 20.45849168
  12.30471460  8.36774588 21.61323515
  17.84314135  2.87944150 17.50322586
  21.68887124  6.04982630  9.57948250
  18.57310935  4.75615001 10.03976840
  22.81522226 18.09935504  8.74523415
  14.64921175  0.33808286 10.08747787
  19.20986618  0.90951457  9.91976410
  17.55830880  3.55833368 12.31360861
  21.43279065  5.52010794 13.70703555
  13.66032332  6.51363181  8.22435231
  20.88819042  7.07910007 16.57345775
  13.80466148  7.54568067 16.50036047
  13.88671602 16.78194655 15.53597880
   0.79713597  7.14008139 17.51718211
  21.89589338  8.60211669 12.20777585
  17.46806539 10.60990927 11.35790489
  18.70851373  7.95890822 17.08043495
  13.83846346 11.30523625 10.16284657
  16.81946503 12.70510106 10.30871170
  19.69247867 10.82944087 11.28015755
   0.11154425 11.94156933  9.61828518
  19.39294954 13.90878407 12.57986315
  20.50359566 11.83892143 19.39637699
  12.17364643  0.73841562 11.33679820
   5.22293275  0.64038106 10.57067472
   5.06558822  5.31016263  8.58198589
   3.68730349  6.97649684  7.50000000
   7.99605454  3.81940543  8.89228530
   5.21406665  1.82920834  8.67629559
  11.97162960 15.93606868 14.69664908
   9.01613054  5.43718722 17.40897099
   5.73250394  2.68646974 16.07013461
   7.38347683  9.82751530 11.89413327
   9.57419369  8.95041833 10.90632902
   9.32938926 15.37219961 10.45189795
   5.71709332 12.87720376  7.91249741
   7.29826932  8.58329756  9.92688859
   9.49267817 11.58787004  9.10861924
   3.26254231  9.84268607  9.46104865
  13.88920341 13.64839014  9.47364424
  10.98005707 16.61013128 11.93160111
   2.84444036  6.87587469 16.44058005
   1.69458472 13.04299867 17.36160404
   5.70954026  7.95215275 18.34283171
   5.72663548 15.77718002 17.99540440
  11.15268585 11.03222571 21.40932868
  12.90982848 10.44886221 21.26639738
  12.90488893 12.86867460 21.41697735
  12.05714813 13.00900374 19.83709532
  13.64220903 12.22246061 19.91261699
  12.15506316  8.83199783 22.59797550
  11.40369844  7.79374155 21.35350618
  13.16679221  7.68801525 21.66577082
   8.63740362 12.74899635 11.80179838
   8.11940335 10.13371715 11.30144811
  20.14930601 11.25006536 18.71378787
   8.16749231  0.20673813 14.26935113
   0.77557464 17.88884744 14.20858471
  14.89790566  2.42919560 13.15609244
   1.60709516  1.94711408 10.62190669
  10.57955331  3.34782959 11.30707087
  18.86679123  4.87160553 12.98914499
  22.80414631  4.29472599 16.08918772
   6.43261122  6.42138248 12.05751853
  13.02497128 15.04561294 11.87575437
   9.17607325  0.46654388 16.66270753
   4.15590840  7.34186119 10.89510594
  20.26763779 13.40576213 17.13802034
  20.26706432  0.40520541 12.55556607
   7.04790320 14.78911669 12.31057251
   9.87045805  5.73421333 10.20482654
  18.97981992  9.43030471 13.97803870
  23.02368119  2.30385254 14.01079844
  12.05614538  9.39376932 16.93029517
   0.80854198 17.67059137 11.54385891
  22.54593219  6.49427402  9.44298747
   1.63005096  7.09065222 10.11814055
   4.87647100 14.20393591 10.62861051
   0.91072893  8.59464512 13.41772355
   5.58092250  6.18597876 15.80735794
   9.28410924  4.51135437 17.30677986
  10.64936468 11.17450760 15.60028241
  21.29132994 14.56806774 14.98739768
  20.34739459  2.95787901 11.88993046
  13.40476402 13.09287863 10.11168720
   3.33439013  3.88355087 10.10739962
   8.18058450 14.90626187 16.31253786
  21.32759690 16.31330727 12.98949491
   1.43600223 10.72877939 11.88926245
  16.58313365 11.06030463 11.28987623
   1.76725442 15.80154965 12.98450890
  16.39878711 15.99633320 11.63069310
  17.10067149  1.88065936 14.59528060
  21.51914272  6.46577374 16.99483502
  17.20377480 16.44387993 16.47707818
  14.63491423 10.55703168 13.07549710
  13.03010146 12.41099800 12.56123752
   9.98238684  5.45636276 14.92507150
  22.90303759 14.19667544 12.81787194
  15.30071122 11.77929190 17.02924227
   9.28415599 14.51394393 13.86210700
  14.10975474 10.38073831 10.36813464
  16.84844660 12.43643349 14.97619689
   3.41871236  7.63595980 16.63298681
   1.53578185 10.92883738 14.57350909
  19.15981290 17.02947264 14.41930028
  19.38959778  7.44001838 12.14868300
  12.36069470  6.34291215 14.24577457
  17.23853002 10.04558751 15.99771059
  13.05025009  4.12466491 10.61647095
  18.86866258  5.64651294 10.30420244
   5.55892333  0.15284577 13.65458756
  16.20957721 15.06823963 14.54960903
  21.61808636  0.08630132 14.86844630
  12.30818899  6.75858696 10.71452528
  10.95421173  0.79290274 14.68509549
  19.61983339  2.71122037 14.50693989
  12.59301152  3.10962891 13.07168996
   8.19848185  4.38158105 11.81890631
   0.27532438  0.31889337  9.01248080
  10.75030479 11.63081396 18.16823189
  15.33358375 17.76934745 10.19493214
   1.78612593 13.43164436 11.71794928
  10.66571804  8.29413674 14.90051450
  16.83785811 13.69249221 10.20446890
  10.48139689 13.71583557 16.18538812
  17.61819454 13.85383870 12.80442605
  18.25918803  3.18851313 16.68428106
  23.25384464  6.58158513 12.05458163
  12.52519214 10.18568613 14.29860593
  19.12182067 10.04361594 11.38355200
   5.53507595  3.62482550 16.25739698
   4.76497818 16.05333538 12.64952801
   5.62031800 11.12959153 14.03877558
   1.42461812 12.32368186 16.77127679
   1.07865368 11.91526713  9.52151395
  18.73978059  0.60719552 16.28452364
  12.59506368  1.50191281 10.87439573
  14.15158646  6.67010069 16.25674076
  20.16990973  1.07395004  9.92550906
   2.22199659  3.70047811 12.55674536
   4.01988875  4.69109033 14.25822784
  15.00637423 13.76530096 12.22697399
  10.22576747  8.42551173 10.38808912
  13.44157368  2.02337622 15.33458449
   3.54535369 11.75328740 10.45651017
   6.26813510 11.91510113 10.54651395
  10.30702050  6.83862960 12.64390410
   5.57211440  3.87241773 11.55719116
   1.71487472  3.69309289 15.11352766
  19.76652035 10.88333971 16.10441000
  14.54261459  6.07285683 11.04652184
  14.10921452 17.15556596 12.56053950
   0.73477264  4.53889327 10.45741115
  14.23332120  4.52381012 14.74280287
   3.10901351 18.00414686 12.89022683
   1.86696359  6.07056505 13.77067574
   8.72461463  2.86336238 15.28992320
   1.54436013 13.61611041 14.39982200
  15.60335581  8.52728779 11.56015827
  18.70045444 14.23102502 15.17144213
  16.47777184  0.22456388 12.64014391
  14.00784337 12.49505697 14.85599506
  16.92262720  6.32192920 12.14235921
  22.87378211  6.70109395 14.70644850
   3.69396510 12.40282939 15.32740447
  14.82716522  6.92171361 13.65139239
  19.21528438  8.21474911 16.29322317
  22.44155659  1.49367766 11.20910044
   6.60929164  4.54840873 13.94212478
   5.83544193  9.02830396 12.39472924
   6.34000791 16.38476587 15.26998846
   4.76813504 13.42343385 13.08920785
   3.44435051  9.62697504 13.24126574
   5.27008063  8.67241470 14.96922570
  21.33745138  9.20429214 12.73515651
  20.36286723 13.76750071 12.47800922
  17.28034963  2.68227812 11.96927179
   5.20160188 17.84878525 10.96698378
   5.88963051  8.30074726 17.45716969
  14.75266134 17.00669589 15.95129646
   9.60385771 15.29878657 11.38342242
  21.48621551  4.55245637 13.66334053
   3.10309823  9.03742301  8.93260776
   3.63220806  6.50021683  8.34890949
   8.73253334  3.37219755  9.35415932
   0.81706163  6.30849755 17.01665330
  13.40739699  5.65476936  8.60535697
   5.70557056 14.96246488 17.46962655
   4.85490080 12.74990154  8.34376522
   6.44687148  8.10699146  9.87629901
   8.55333550 11.82900896  9.20004704
   5.29986877  2.01806602  9.62744117
   5.64688233  4.55318002  8.85384768
  11.73544815 17.16960912 12.22767567
  12.88198405 15.99204010 14.36093131
  12.74496563 12.75683652 17.02618780
  11.20608684  3.18874009 16.00438950
   6.13302066 13.57295419 15.29827546
  10.38099748 16.31275413 15.65301460
  17.90708750 12.17318077 17.46586451
  19.77864320 16.07981244 16.74229083
  14.97913589 14.40601293 16.69246313
   0.18549129  1.59968906 16.21206083
   6.66460864  1.01727512 15.96091371
  11.79144319  0.46681989 16.89689277
  10.13990998  8.85238364 19.14395544
  13.33909728  9.22113530 19.42970788
   1.94841153 11.98908596 10.92575188
   9.56416478 14.84625755 15.46678043
  19.70678074  8.99967650 12.57708649
   0.40008717  0.82752277 10.58159830
   0.34415087  6.14987929 10.51358498
   0.22068847  3.07560387 15.38575689
  14.25521919 12.92448656 16.41009225
   5.01117737  9.62757807 13.70154301
  21.42278905 14.69169878 13.34099278
  12.18741762  3.00159257 11.45195358
   9.80300705  4.04929563 15.82197282
   1.95373172  3.52197018 10.94101594
  16.43233932  1.81266960 13.10088356
  15.56990047 17.27354966 11.76083937
  15.21965321 10.13359373 11.56390395
   4.64622068 17.53530673 12.47363180
   5.00992990  7.65805380 16.22458097
  15.76115274 15.74184686 15.98149278
   5.06716105 12.62335539 14.47721915
   8.63383069 14.32142384 12.34509184
  18.65995270 17.09589794 16.00854881
  20.59007500 17.52835822 13.76398093
  13.49110135 11.40602334 13.76566898
  13.80739628  3.08371487 14.12350502
  20.08975493  3.75647992 13.31199648
  19.54569814 11.94362366 17.35803091
   3.13099191  7.52942423  9.59392828
  18.51026388  6.07284540 11.87902451
   9.34522920  4.21642612 10.64589911
  20.03141913 14.59644733 16.03618428
   6.61870987 17.92061551 14.77605527
   0.54020935  6.98811771 13.50205012
  13.45117902 13.60314055 11.70943634
   5.39023881 14.63805192 12.15046292
  13.90021297  6.13090674 14.73152290
  22.83721988  5.93995388 16.19619321
  20.81044864  1.46044249 11.40392910
   2.45450371  4.53524512 13.92157898
   1.12715225 14.28353886 12.97472440
   5.43239787  4.73491491 15.08001485
  13.14328356  5.67138795 10.24864117
  11.14912610 12.31445420 16.72225698
   6.56262613 14.96139206 16.07237492
   4.88127424 12.65920103  9.99508876
  17.32523740 13.88109813 14.40515710
  23.08989644  0.82027004 14.79965616
  16.46058793 14.35205634 11.67438144
  18.45333689  2.06986770 15.50159733
  10.68289909  6.95194918 11.00303640
  10.53122276 17.92683323 15.98800790
  11.90496014  1.71408036 15.74490892
   5.71814202  7.71222076 11.31647527
  15.41693082  6.98004644 12.10686792
  10.79753161  6.75062360 14.21616656
   7.89661487 11.69048858 10.72869482
  18.79695821  9.64608466 15.58006922
   1.62029077 17.28843974 12.91760565
   4.96103075  3.61769098 10.04353415
   1.83153245  9.95161914 13.29886860
  13.05343995 16.44545689 12.76234739
  16.80303017 11.59479137 16.38818313
   6.71066321  4.80730338 12.34244318
   2.05104663 12.32441489 15.26127136
   8.28195701  1.31238319 15.55102664
  11.43397747  9.69954101 15.42975012
  11.49211945  9.86917652 18.83656465



--------------------------------------------------------------------------------------------------------


 k-point  1 :   0.0000 0.0000 0.0000  plane waves:  289505
 k-point  2 :   0.3333 0.0000 0.0000  plane waves:  289422
 k-point  3 :   0.0000 0.3333 0.0000  plane waves:  289550
 k-point  4 :   0.3333 0.3333 0.0000  plane waves:  289551
 k-point  5 :  -0.3333 0.3333 0.0000  plane waves:  289551

 maximum and minimum number of plane-waves per node :     72451    72309

 maximum number of plane-waves:    289551
 maximum index in each direction: 
   IXMAX=   43   IYMAX=   33   IZMAX=   49
   IXMIN=  -43   IYMIN=  -33   IZMIN=  -49


 real space projection operators:
  total allocation   :      13822.12 KBytes
  max/ min on nodes  :       3460.37       3451.41


 parallel 3D FFT for wavefunctions:
    minimum data exchange during FFTs selected (reduces bandwidth)
 parallel 3D FFT for charge:
    minimum data exchange during FFTs selected (reduces bandwidth)


 total amount of memory used by VASP MPI-rank0  2555067. kBytes
=======================================================================

   base      :      30000. kBytes
   nonlr-proj:      16983. kBytes
   fftplans  :      79581. kBytes
   grid      :     173670. kBytes
   one-center:       1088. kBytes
   wavefun   :    2253745. kBytes

     INWAV:  cpu time    0.0001: real time    0.0000
 Broyden mixing: mesh for mixing (old mesh)
   NGX = 85   NGY = 67   NGZ = 99
  (NGX  =256   NGY  =200   NGZ  =300)
  gives a total of 563805 points

 initial charge density was supplied:
 charge density of overlapping atoms calculated
 number of electron    1264.0000000 magnetization 
 keeping initial charge density in first step


--------------------------------------------------------------------------------------------------------


 Maximum index for non-local projection operator          655
 Maximum index for augmentation-charges         1153 (set IRDMAX)


--------------------------------------------------------------------------------------------------------


 First call to EWALD:  gamma=   0.079
 Maximum number of real-space cells 3x 3x 2
 Maximum number of reciprocal cells 3x 2x 3

    FEWALD:  cpu time    0.0922: real time    0.0924


--------------------------------------- Iteration      1(   1)  ---------------------------------------


    POTLOK:  cpu time    1.0446: real time    1.0709
    SETDIJ:  cpu time    2.0496: real time    2.0562
     EDDAV:  cpu time  351.0053: real time  352.2951
       DOS:  cpu time    0.0054: real time    0.0054
    --------------------------------------------
      LOOP:  cpu time  354.1048: real time  355.4276

 eigenvalue-minimisations  :  8712
 total energy-change (2. order) : 0.1312752E+05  (-0.5078686E+05)
 number of electron    1264.0000000 magnetization 
 augmentation part     1264.0000000 magnetization 

 DIPCOR: dipole corrections for dipol
 direction  3 min pos    79,
 dipolmoment           0.000000      0.000000     10.611162 electrons x Angstroem
 Tr[quadrupol]    -96597.026596

 energy correction for charged system         0.000000 eV
 dipol+quadrupol energy correction           -0.915467 eV
 added-field ion interaction       1492.893502 eV  (added to PSCEN)


 Free energy of the ion-electron system (eV)
  ---------------------------------------------------
  alpha Z        PSCENC =      1987.04548529
  Ewald energy   TEWEN  =    308690.31640960
  -Hartree energ DENC   =   -371299.50078913
  -exchange      EXHF   =         0.00000000
  -V(xc)+E(xc)   XCENC  =      3806.27238414
  PAW double counting   =     60302.38778424   -59321.72876092
  entropy T*S    EENTRO =        -1.60083401
  eigenvalues    EBANDS =     -6175.20980883
  atomic energy  EATOM  =     75139.53829012
  Solvation  Ediel_sol  =         0.00000000
  ---------------------------------------------------
  free energy    TOTEN  =     13127.52016049 eV

  energy without entropy =    13129.12099450  energy(sigma->0) =    13128.32057750


--------------------------------------------------------------------------------------------------------




--------------------------------------- Iteration      1(   2)  ---------------------------------------


     EDDAV:  cpu time  413.2908: real time  414.8223
       DOS:  cpu time    0.0044: real time    0.0044
    --------------------------------------------
      LOOP:  cpu time  413.2952: real time  414.8267

 eigenvalue-minimisations  : 10608
 total energy-change (2. order) :-0.1253750E+05  (-0.1214816E+05)
 number of electron    1264.0000000 magnetization 
 augmentation part     1264.0000000 magnetization 

 DIPCOR: dipole corrections for dipol
 direction  3 min pos    79,
 dipolmoment           0.000000      0.000000     10.611162 electrons x Angstroem
 Tr[quadrupol]    -96597.026596

 energy correction for charged system         0.000000 eV
 dipol+quadrupol energy correction           -0.915467 eV
 added-field ion interaction       1492.893502 eV  (added to PSCEN)


 Free energy of the ion-electron system (eV)
  ---------------------------------------------------
  alpha Z        PSCENC =      1987.04548529
  Ewald energy   TEWEN  =    308690.31640960
  -Hartree energ DENC   =   -371299.50078913
  -exchange      EXHF   =         0.00000000
  -V(xc)+E(xc)   XCENC  =      3806.27238414
  PAW double counting   =     60302.38778424   -59321.72876092
  entropy T*S    EENTRO =        -0.00001792
  eigenvalues    EBANDS =    -18714.31143790
  atomic energy  EATOM  =     75139.53829012
  Solvation  Ediel_sol  =         0.00000000
  ---------------------------------------------------
  free energy    TOTEN  =       590.01934752 eV

  energy without entropy =      590.01936544  energy(sigma->0) =      590.01935648


--------------------------------------------------------------------------------------------------------




--------------------------------------- Iteration      1(   3)  ---------------------------------------


     EDDAV:  cpu time  361.3190: real time  362.6973
       DOS:  cpu time    0.0031: real time    0.0032
    --------------------------------------------
      LOOP:  cpu time  361.3222: real time  362.7004

 eigenvalue-minimisations  :  9016
 total energy-change (2. order) :-0.2606931E+04  (-0.2594772E+04)
 number of electron    1264.0000000 magnetization 
 augmentation part     1264.0000000 magnetization 

 DIPCOR: dipole corrections for dipol
 direction  3 min pos    79,
 dipolmoment           0.000000      0.000000     10.611162 electrons x Angstroem
 Tr[quadrupol]    -96597.026596

 energy correction for charged system         0.000000 eV
 dipol+quadrupol energy correction           -0.915467 eV
[...]
     10.13929      8.85244     19.14397        -0.010934      0.013609      0.002273
     13.33829      9.22043     19.42940        -0.028307     -0.025846     -0.011541
      1.94841     11.98909     10.92575        -0.043683     -0.126906      0.119436
      9.56416     14.84630     15.46671         0.000299      0.001210     -0.001050
     19.70678      8.99968     12.57709         0.088743     -0.166360     -0.260876
      0.40009      0.82752     10.58160         0.088636     -0.153880      0.391142
      0.34415      6.14988     10.51358         0.045600      0.019220      0.132938
      0.22069      3.07557     15.38576         0.004465      0.000144     -0.002477
     14.25514     12.92452     16.41008        -0.001520      0.003053     -0.000574
      5.01118      9.62760     13.70153        -0.000462      0.003582     -0.001850
     21.42279     14.69170     13.34099         0.171089      0.204656     -0.577416
     12.18742      3.00159     11.45195         0.182059     -0.046443      0.555229
      9.80298      4.04938     15.82202        -0.002318      0.004297     -0.000638
      1.95373      3.52197     10.94102         0.080428     -0.101023      0.151362
     16.43234      1.81267     13.10088         0.060833     -0.088638     -0.274982
     15.56990     17.27355     11.76084        -0.476509      4.532637     -0.148399
     15.21965     10.13359     11.56390         0.026463      0.092328      0.379087
      4.64622     17.53531     12.47363        -0.686740      6.155639     -0.284836
      5.00991      7.65815     16.22462        -0.002135      0.003282      0.001785
     15.76115     15.74183     15.98149        -0.000003      0.004525      0.001377
      5.06722     12.62336     14.47719        -0.003423      0.003497      0.002046
      8.63383     14.32142     12.34509        -0.283045     -0.058413      0.189237
     18.65993     17.09590     16.00856         0.003075      0.000244     -0.000524
     20.59007     17.52836     13.76398         0.001186      0.000662     -0.000518
     13.49111     11.40605     13.76569         0.000531      0.001907      0.000381
     13.80740      3.08374     14.12351         0.000338      0.001162     -0.000910
     20.08975      3.75648     13.31200        -0.138167     -0.009227     -0.412647
     19.54562     11.94354     17.35803        -0.001220     -0.000231      0.000400
      3.13099      7.52942      9.59393        -0.070684     -0.128234      0.134970
     18.51026      6.07285     11.87902        -0.298481      0.126186      0.139106
      9.34523      4.21643     10.64590        -0.120659     -0.281445      0.302349
     20.03142     14.59640     16.03621         0.000887      0.003781     -0.000070
      6.61870     17.92066     14.77607        -0.001953      0.003666      0.000205
      0.54021      6.98812     13.50205         0.221486      0.203818     -0.322492
     13.45118     13.60314     11.70944         3.874733     -0.936084     -2.347537
      5.39024     14.63805     12.15046         0.153931     -0.595860      0.089720
     13.90022      6.13091     14.73154         0.002469     -0.000621      0.000512
     22.83724      5.93998     16.19620        -0.000379     -0.001889      0.000272
     20.81045      1.46044     11.40393         0.011474      0.042397      0.183491
      2.45451      4.53519     13.92160        -0.000595      0.004714     -0.003072
      1.12715     14.28354     12.97472        -0.176318     -0.597082     -0.189976
      5.43242      4.73497     15.08004        -0.000777      0.003750     -0.003000
     13.14328      5.67139     10.24864         8.343732     -5.320592     -3.462007
     11.14907     12.31455     16.72218        -0.003080      0.010825     -0.009126
      6.56265     14.96143     16.07237        -0.000741      0.002309     -0.001080
      4.88127     12.65920      9.99509         0.106129     -0.061047      0.102730
     17.32520     13.88110     14.40515        -0.000428      0.004292      0.000836
     23.08991      0.82027     14.79967        -0.000237      0.000359     -0.001401
     16.46059     14.35206     11.67438        -0.724967     -1.357108      0.416914
     18.45334      2.06985     15.50160         0.000613      0.000246     -0.000512
     10.68290      6.95195     11.00304        -1.135557      0.561460      0.617252
     10.53117     17.92693     15.98797        -0.001381      0.004794     -0.003657
     11.90488      1.71422     15.74482         0.000013      0.005676     -0.003167
      5.71814      7.71222     11.31648         0.061009     -0.115566     -0.045663
     15.41693      6.98005     12.10687        -0.162779     -0.433593     -0.739826
     10.79753      6.75064     14.21611         0.003137     -0.000436     -0.002265
      7.89661     11.69049     10.72869        -0.094994     -0.060535      0.066924
     18.79691      9.64606     15.58008        -0.003247      0.003090     -0.001930
      1.62029     17.28844     12.91761        -0.330586      6.452559     -0.497767
      4.96103      3.61769     10.04353        -0.088329     -0.040352      0.156841
      1.83153      9.95162     13.29887         0.010766     -0.182367     -0.276012
     13.05344     16.44546     12.76235       -22.323009    -15.912447      4.731267
     16.80299     11.59475     16.38816        -0.001074      0.000601     -0.002142
      6.71066      4.80730     12.34244        -0.184364      0.060308     -0.762278
      2.05109     12.32440     15.26128        -0.001000     -0.000008     -0.000822
      8.28187      1.31243     15.55111        -0.003826      0.002915      0.001787
     11.43369      9.69961     15.42958        -0.007820      0.002581     -0.010982
     11.49145      9.86914     18.83656        -0.031947     -0.016495      0.008537
 -----------------------------------------------------------------------------------
    total drift:                               -0.831505     -0.419586      0.264635


--------------------------------------------------------------------------------------------------------



  FREE ENERGIE OF THE ION-ELECTRON SYSTEM (eV)
  ---------------------------------------------------
  free  energy   TOTEN  =     -1892.60946903 eV

  energy  without entropy=    -1892.60946903  energy(sigma->0) =    -1892.60946903

 d Force = 0.2270166E-03[ 0.148E-03, 0.306E-03]  d Energy = 0.2334591E-03-0.644E-05
 d Force =-0.1122192E+01[-0.112E+01,-0.112E+01]  d Ewald  =-0.1122192E+01-0.182E-07


--------------------------------------------------------------------------------------------------------


    POTLOK:  cpu time    3.0208: real time    3.0314


--------------------------------------------------------------------------------------------------------


 NEB: the previous image is higher in energy: F
 NEB: the next image is higher in energy    : F
 NEB: image is at an extrema
 NEB: diff energy (min, max):     1.575804    1.585787

 NEB: Tangent
 ----------------------------------------------
      0.29492      0.02757      0.31211
     -0.23599     -0.04777     -0.24166
      0.08831      0.02867      0.00747
     -0.05707     -0.01614     -0.13046
     -0.00009      0.00064      0.00033
      0.00000      0.00000      0.00000
      0.00000      0.00000      0.00000
      0.00000      0.00000      0.00000
      0.00000      0.00000      0.00000
      0.00000      0.00000      0.00000
      0.00000      0.00000      0.00000
     -0.00021     -0.00004      0.00071
      0.00000      0.00000      0.00000
     -0.00013      0.00027      0.00072
     -0.01295     -0.00264      0.00598
     -0.00021     -0.00085      0.00156
     -0.00045     -0.00061      0.00096
      0.00000      0.00000      0.00000
      0.00000      0.00000      0.00000
      0.00008     -0.00001     -0.00092
      0.00000      0.00000      0.00000
      0.00000      0.00000      0.00000
      0.00000      0.00000      0.00000
      0.00000      0.00000      0.00000
      0.00000      0.00000      0.00000
     -0.00292     -0.00176      0.00136
      0.00000      0.00000      0.00000
      0.00000      0.00000      0.00000
      0.00000      0.00000      0.00000
      0.00000      0.00000      0.00000
      0.00000      0.00000      0.00000
      0.00000      0.00000      0.00000
     -0.00018      0.00126     -0.00041
      0.01075      0.00227      0.00218
      0.00064      0.00060     -0.00010
      0.00000      0.00000      0.00000
      0.00000      0.00000      0.00000
      0.00000      0.00000      0.00000
      0.00000      0.00000      0.00000
      0.00000      0.00000      0.00000
      0.00000      0.00000      0.00000
      0.00000      0.00000      0.00000
      0.00000      0.00000      0.00000
      0.00000      0.00000      0.00000
     -0.00046      0.00023      0.00012
     -0.00082      0.00019      0.00009
      0.00245     -0.00220     -0.00038
     -0.00132     -0.00118     -0.00028
      0.20092      0.04419      0.17325
     -0.32122      0.36534      0.37385
      0.07189      0.15861     -0.07528
     -0.00897     -0.11824     -0.02462
      0.06922      0.03905     -0.02121
     -0.02467      0.02166     -0.13650
     -0.02893     -0.10385     -0.03537
     -0.00256      0.05218     -0.13422
      0.00000      0.00000      0.00000
      0.00000      0.00000      0.00000
      0.00241     -0.00163     -0.00140
      0.00099     -0.00470      0.00033
     -0.00006      0.00006     -0.00006
      0.00000      0.00000      0.00000
      0.00000      0.00000      0.00000
      0.00000      0.00000      0.00000
      0.00000      0.00000      0.00000
      0.00001      0.00001      0.00001
      0.00000      0.00000      0.00000
      0.00000      0.00000      0.00000
     -0.00016     -0.00604      0.00138
      0.00000      0.00000      0.00000
      0.00003     -0.00039      0.00009
      0.00000      0.00000      0.00000
      0.00000      0.00000      0.00000
      0.00000      0.00000      0.00000
      0.00030      0.00006     -0.00019
      0.00002     -0.00005     -0.00004
      0.06611     -0.09434     -0.02221
      0.00000      0.00000      0.00000
      0.00000      0.00000      0.00000
      0.00000      0.00000      0.00000
      0.00000      0.00000      0.00000
      0.00000      0.00000      0.00000
     -0.00035      0.00036      0.00016
     -0.00031     -0.00057     -0.00130
      0.00157     -0.03861      0.06029
      0.00005     -0.00003     -0.00015
      0.00000      0.00000      0.00000
      0.00000      0.00000      0.00000
      0.00000      0.00000      0.00000
     -0.00073     -0.00086      0.00078
      0.00000      0.00000      0.00000
      0.00000      0.00000      0.00000
      0.00000      0.00000      0.00000
      0.00000      0.00000      0.00000
      0.00000      0.00000      0.00000
     -0.00035     -0.00026      0.00020
      0.00005     -0.00011      0.00014
     -0.00026     -0.00115     -0.00015
      0.00000      0.00000      0.00000
      0.00000      0.00000      0.00000
     -0.00151     -0.00907     -0.00597
      0.00000      0.00000      0.00000
      0.00047     -0.00069      0.00117
      0.00170     -0.00102      0.00167
      0.00000      0.00000      0.00000
     -0.00158     -0.00135      0.00017
     -0.00035      0.00026     -0.00028
      0.00023      0.00013     -0.00016
      0.00002     -0.00090     -0.00002
      0.00000      0.00000      0.00000
     -0.00019     -0.00342      0.00012
      0.00073     -0.00086     -0.00025
      0.00000      0.00000      0.00000
      0.00000      0.00000      0.00000
      0.00000      0.00000      0.00000
     -0.00069     -0.00218      0.00122
      0.00004     -0.00038      0.00005
      0.00000      0.00000      0.00000
      0.00115     -0.00508      0.00144
     -0.00037      0.00008      0.00000
      0.00000      0.00000      0.00000
      0.00000      0.00000      0.00000
      0.00000      0.00000      0.00000
      0.02694      0.00821      0.06057
      0.00000      0.00000      0.00000
      0.00000      0.00000      0.00000
     -0.01014     -0.00882     -0.00629
      0.00000      0.00000      0.00000
     -0.01235     -0.02112      0.00794
      0.00000      0.00000      0.00000
      0.00052     -0.00031      0.00022
      0.00000      0.00000      0.00000
     -0.01268      0.00809      0.00122
      0.00000      0.00000      0.00000
      0.00236      0.00072      0.00064
      0.00000      0.00000      0.00000
     -0.00004     -0.00003     -0.00003
     -0.00005     -0.00001      0.00005
      0.00000      0.00000      0.00000
     -0.00058     -0.00067     -0.00076
      0.00000      0.00000      0.00000
      0.00066      0.00279      0.00009
      0.00000      0.00000      0.00000
      0.00000      0.00000      0.00000
      0.00034     -0.00064      0.00041
      0.00000      0.00000      0.00000
      0.00000      0.00000      0.00000
      0.00035     -0.00052     -0.00013
      0.00000      0.00000      0.00000
      0.00000      0.00000      0.00000
      0.00000      0.00000      0.00000
      0.00000      0.00000      0.00000
      0.00002      0.00000      0.00001
      0.00081      0.00028     -0.00107
      0.00000      0.00000      0.00000
      0.00000      0.00000      0.00000
      0.00000      0.00000      0.00000
      0.00069     -0.00023      0.00023
      0.00000      0.00000      0.00000
      0.00004      0.00001     -0.00016
     -0.00074     -0.00461      0.00065
      0.00008      0.00007      0.00012
      0.00000      0.00000      0.00000
      0.00011     -0.00345     -0.00036
      0.00000      0.00000      0.00000
     -0.00619     -0.00210      0.00501
      0.00000      0.00000      0.00000
      0.00023      0.00007      0.00009
     -0.00021      0.00006     -0.00002
      0.00000      0.00000      0.00000
      0.00209      0.00025      0.00035
      0.00000      0.00000      0.00000
      0.00029      0.00013     -0.00006
      0.00000      0.00000      0.00000
     -0.00132     -0.00210     -0.00064
      0.00000      0.00000      0.00000
      0.00000      0.00000      0.00000
      0.00009      0.00060      0.00046
      0.00000      0.00000      0.00000
      0.00000      0.00000      0.00000
      0.00000      0.00000      0.00000
      0.00000      0.00000      0.00000
     -0.00093      0.00105      0.00035
     -0.00079     -0.00201      0.00299
      0.00000      0.00000      0.00000
      0.00000      0.00000      0.00000
      0.00000      0.00000      0.00000
      0.00000      0.00000      0.00000
      0.00000      0.00000      0.00000
     -0.00003     -0.00005     -0.00010
      0.00000      0.00000      0.00000
     -0.00026     -0.00183      0.00051
      0.00000      0.00000      0.00000
      0.00000      0.00000      0.00000
      0.00000      0.00000      0.00000
      0.00000      0.00000      0.00000
      0.00000      0.00000      0.00000
      0.00000      0.00000      0.00000
     -0.00008     -0.00004     -0.00000
     -0.00046     -0.00241      0.00943
     -0.00077     -0.00430      0.00041
      0.00040     -0.00120      0.00019
      0.00541     -0.00898      0.00641
      0.00072     -0.00023     -0.00056
     -0.00082     -0.00147     -0.00088
     -0.00239     -0.00162      0.00035
     -0.00006     -0.00001      0.00007
      0.00039     -0.00270     -0.00039
      0.00119     -0.00282      0.00082
     -0.03692     -0.12588     -0.19705
      0.02791      0.07545     -0.08151
      0.00000      0.00000      0.00000
      0.00078     -0.00730      0.00382
      0.00000      0.00000      0.00000
      0.00000      0.00000      0.00000
      0.00000      0.00000      0.00000
     -0.00003      0.00004     -0.00000
     -0.00020     -0.00271      0.00401
     -0.00004     -0.00028     -0.00003
      0.00000      0.00000      0.00000
      0.00000      0.00000      0.00000
     -0.00072     -0.00391     -0.00003
      0.00000      0.00000      0.00000
      0.00000      0.00000      0.00000
      0.00000      0.00000      0.00000
      0.00000      0.00000      0.00000
      0.00000      0.00000      0.00000
     -0.00023      0.00029      0.00023
     -0.00044     -0.00169      0.00094
     -0.00029     -0.00044     -0.00028
      0.00000      0.00000      0.00000
     -0.00042     -0.00075     -0.00021
     -0.00019     -0.00014      0.00003
     -0.00167     -0.00089      0.00083
      0.00020      0.00062      0.00014
      0.00000      0.00000      0.00000
      0.00064     -0.00075     -0.00034
      0.00000      0.00000      0.00000
      0.00000      0.00000      0.00000
      0.00000      0.00000      0.00000
     -0.00032     -0.00127     -0.00043
     -0.00005     -0.00196     -0.00057
      0.00000      0.00000      0.00000
      0.00000      0.00000      0.00000
      0.00000      0.00000      0.00000
      0.00069      0.00077      0.00251
     -0.00004      0.00005      0.00007
      0.00000      0.00000      0.00000
      0.00028     -0.00004      0.00009
      0.00000      0.00000      0.00000
      0.00066      0.00029      0.00026
      0.00000      0.00000      0.00000
      0.00245     -0.00896      0.02594
     -0.00097     -0.00100     -0.00006
      0.00000      0.00000      0.00000
     -0.00041     -0.00190      0.00016
     -0.00011     -0.00003     -0.00001
      0.00000      0.00000      0.00000
     -0.00033     -0.00009      0.00009
      0.00000      0.00000      0.00000
      0.00149     -0.00485      0.00204
      0.00099     -0.00281      0.00037
      0.00000      0.00000      0.00000
      0.00000      0.00000      0.00000
     -0.00103     -0.00766     -0.00135
      0.00000      0.00000      0.00000
      0.00066     -0.00021     -0.00006
      0.00000      0.00000      0.00000
      0.00000      0.00000      0.00000
      0.00000      0.00000      0.00000
      0.00000      0.00000      0.00000
     -0.00000     -0.00153      0.00073
      0.00000      0.00000      0.00000
     -0.00016      0.00006     -0.00001
      0.00086     -0.00448      0.00077
      0.01270     -0.02983      0.01088
     -0.05822     -0.05794     -0.07826

 NEB: forces: par spring, perp REAL, dneb     1.409415    0.157466    0.000000
 NEB: distance to prev, next image, angle between     1.018970    1.300853   94.514199
 NEB: projections on to tangent (spring, REAL)     1.409415   -0.000762

 stress matrix after NEB project (eV)
    -31.96631     -0.18341      0.63343
     -0.18341    -31.65090     -0.66972
      0.63343     -0.66972    -22.22581
  FORCES: max atom, RMS     0.049674    0.009461
  FORCE total and by dimension    0.157468    0.040895
  Stress total and by dimension   50.193407   31.966315
 OPT: skip step - force has converged


--------------------------------------------------------------------------------------------------------


  
 reached required accuracy - stopping structural energy minimisation
     LOOP+:  cpu time  550.4940: real time  552.5924
    4ORBIT:  cpu time    0.0000: real time    0.0000

 total amount of memory used by VASP MPI-rank0  2555067. kBytes
=======================================================================

   base      :      30000. kBytes
   nonlr-proj:      16983. kBytes
   fftplans  :      79581. kBytes
   grid      :     173670. kBytes
   one-center:       1088. kBytes
   wavefun   :    2253745. kBytes

  
  
 General timing and accounting informations for this job:
 ========================================================
  
                  Total CPU time used (sec):     6536.716
                            User time (sec):     6532.001
                          System time (sec):        4.715
                         Elapsed time (sec):     6588.081
  
                   Maximum memory used (kb):     2830628.
                   Average memory used (kb):           0.
  
                          Minor page faults:      1417039
                          Major page faults:           93
                 Voluntary context switches:         3692
