 vasp.5.4.4.18Apr17-6-g9f103f2a35 (build Oct 20 2021 08:33:53) complex           
 executed on             LinuxGNU date 2025.02.28  10:34:01
 running on   64 total cores
 distrk:  each k-point on   64 cores,    1 groups
 distr:  one band on NCORES_PER_BAND=   4 cores,   16 groups


--------------------------------------------------------------------------------------------------------


 INCAR:
 POTCAR:    PAW_PBE C 08Apr2002                   
 POTCAR:    PAW_PBE H 15Jun2001                   
 POTCAR:    PAW_PBE O 08Apr2002                   
 POTCAR:    PAW_PBE Si 05Jan2001                  
 POTCAR:    PAW_PBE W 08Apr2002                   
 POTCAR:    PAW_PBE C 08Apr2002                   
   VRHFIN =C: s2p2                                                              
   LEXCH  = PE                                                                  
   EATOM  =   147.1560 eV,   10.8157 Ry                                         
                                                                                
   TITEL  = PAW_PBE C 08Apr2002                                                 
   LULTRA =        F    use ultrasoft PP ?                                      
   IUNSCR =        1    unscreen: 0-lin 1-nonlin 2-no                           
   RPACOR =    1.200    partial core radius                                     
   POMASS =   12.011; ZVAL   =    4.000    mass and valenz                      
   RCORE  =    1.500    outmost cutoff radius                                   
   RWIGS  =    1.630; RWIGS  =    0.863    wigner-seitz radius (au A)           
   ENMAX  =  400.000; ENMIN  =  300.000 eV                                      
   ICORE  =        2    local potential                                         
   LCOR   =        T    correct aug charges                                     
   LPAW   =        T    paw PP                                                  
   EAUG   =  644.873                                                            
   DEXC   =    0.000                                                            
   RMAX   =    1.529    core radius for proj-oper                               
   RAUG   =    1.300    factor for augmentation sphere                          
   RDEP   =    1.501    radius for radial grids                                 
   RDEPT  =    1.300    core radius for aug-charge                              
                                                                                
   Atomic configuration                                                         
    4 entries                                                                   
     n  l   j            E        occ.                                          
     1  0  0.50      -273.3789   2.0000                                         
     2  0  0.50       -13.7508   2.0000                                         
     2  1  0.50        -5.2854   2.0000                                         
     3  2  1.50        -5.4423   0.0000                                         
   Description                                                                  
     l       E           TYP  RCUT    TYP  RCUT                                 
     0    -13.7508458     23  1.200                                             
     0     -8.2022199     23  1.200                                             
     1     -5.2854383     23  1.500                                             
     1     34.0145650     23  1.500                                             
     2     -5.4423304      7  1.500                                             
  local pseudopotential read in
  partial core-charges read in
  partial kinetic energy density read in
  atomic valenz-charges read in
  non local Contribution for L=           0  read in
    real space projection operators read in
  non local Contribution for L=           0  read in
    real space projection operators read in
  non local Contribution for L=           1  read in
    real space projection operators read in
  non local Contribution for L=           1  read in
    real space projection operators read in
    PAW grid and wavefunctions read in

   number of l-projection  operators is LMAX  =           4
   number of lm-projection operators is LMMAX =           8

 POTCAR:    PAW_PBE H 15Jun2001                   
   VRHFIN =H: ultrasoft test                                                    
   LEXCH  = PE                                                                  
   EATOM  =    12.4884 eV,    0.9179 Ry                                         
                                                                                
   TITEL  = PAW_PBE H 15Jun2001                                                 
   LULTRA =        F    use ultrasoft PP ?                                      
   IUNSCR =        0    unscreen: 0-lin 1-nonlin 2-no                           
   RPACOR =    0.000    partial core radius                                     
   POMASS =    1.000; ZVAL   =    1.000    mass and valenz                      
   RCORE  =    1.100    outmost cutoff radius                                   
   RWIGS  =    0.700; RWIGS  =    0.370    wigner-seitz radius (au A)           
   ENMAX  =  250.000; ENMIN  =  200.000 eV                                      
   RCLOC  =    0.701    cutoff for local pot                                    
   LCOR   =        T    correct aug charges                                     
   LPAW   =        T    paw PP                                                  
   EAUG   =  400.000                                                            
   RMAX   =    1.123    core radius for proj-oper                               
   RAUG   =    1.200    factor for augmentation sphere                          
   RDEP   =    1.112    radius for radial grids                                 
   RDEPT  =    0.926    core radius for aug-charge                              
                                                                                
   Atomic configuration                                                         
    2 entries                                                                   
     n  l   j            E        occ.                                          
     1  0  0.50        -6.4927   1.0000                                         
     2  1  0.50        -3.4015   0.0000                                         
   Description                                                                  
     l       E           TYP  RCUT    TYP  RCUT                                 
     0     -6.4927494     23  1.100                                             
     0      6.8029130     23  1.100                                             
     1     -4.0817478     23  1.100                                             
  local pseudopotential read in
  atomic valenz-charges read in
  non local Contribution for L=           0  read in
    real space projection operators read in
  non local Contribution for L=           0  read in
    real space projection operators read in
  non local Contribution for L=           1  read in
    real space projection operators read in
    PAW grid and wavefunctions read in

   number of l-projection  operators is LMAX  =           3
   number of lm-projection operators is LMMAX =           5

 POTCAR:    PAW_PBE O 08Apr2002                   
   VRHFIN =O: s2p4                                                              
   LEXCH  = PE                                                                  
   EATOM  =   432.3788 eV,   31.7789 Ry                                         
                                                                                
   TITEL  = PAW_PBE O 08Apr2002                                                 
   LULTRA =        F    use ultrasoft PP ?                                      
   IUNSCR =        1    unscreen: 0-lin 1-nonlin 2-no                           
   RPACOR =    1.200    partial core radius                                     
   POMASS =   16.000; ZVAL   =    6.000    mass and valenz                      
   RCORE  =    1.520    outmost cutoff radius                                   
   RWIGS  =    1.550; RWIGS  =    0.820    wigner-seitz radius (au A)           
   ENMAX  =  400.000; ENMIN  =  300.000 eV                                      
   ICORE  =        2    local potential                                         
   LCOR   =        T    correct aug charges                                     
   LPAW   =        T    paw PP                                                  
   EAUG   =  605.392                                                            
   DEXC   =    0.000                                                            
   RMAX   =    1.553    core radius for proj-oper                               
   RAUG   =    1.300    factor for augmentation sphere                          
   RDEP   =    1.550    radius for radial grids                                 
   RDEPT  =    1.329    core radius for aug-charge                              
                                                                                
   Atomic configuration                                                         
    4 entries                                                                   
     n  l   j            E        occ.                                          
     1  0  0.50      -514.6923   2.0000                                         
     2  0  0.50       -23.9615   2.0000                                         
     2  1  0.50        -9.0305   4.0000                                         
     3  2  1.50        -9.5241   0.0000                                         
   Description                                                                  
     l       E           TYP  RCUT    TYP  RCUT                                 
     0    -23.9615318     23  1.200                                             
     0     -9.5240782     23  1.200                                             
     1     -9.0304911     23  1.520                                             
     1      8.1634956     23  1.520                                             
     2     -9.5240782      7  1.500                                             
  local pseudopotential read in
  partial core-charges read in
  partial kinetic energy density read in
  kinetic energy density of atom read in
  atomic valenz-charges read in
  non local Contribution for L=           0  read in
    real space projection operators read in
  non local Contribution for L=           0  read in
    real space projection operators read in
  non local Contribution for L=           1  read in
    real space projection operators read in
  non local Contribution for L=           1  read in
    real space projection operators read in
    PAW grid and wavefunctions read in

   number of l-projection  operators is LMAX  =           4
   number of lm-projection operators is LMMAX =           8

 POTCAR:    PAW_PBE Si 05Jan2001                  
   VRHFIN =Si: s2p2                                                             
   LEXCH  = PE                                                                  
   EATOM  =   103.0669 eV,    7.5752 Ry                                         
                                                                                
   TITEL  = PAW_PBE Si 05Jan2001                                                
   LULTRA =        F    use ultrasoft PP ?                                      
   IUNSCR =        1    unscreen: 0-lin 1-nonlin 2-no                           
   RPACOR =    1.500    partial core radius                                     
   POMASS =   28.085; ZVAL   =    4.000    mass and valenz                      
   RCORE  =    1.900    outmost cutoff radius                                   
   RWIGS  =    2.480; RWIGS  =    1.312    wigner-seitz radius (au A)           
   ENMAX  =  245.345; ENMIN  =  184.009 eV                                      
   ICORE  =        2    local potential                                         
   LCOR   =        T    correct aug charges                                     
   LPAW   =        T    paw PP                                                  
   EAUG   =  322.069                                                            
   DEXC   =    0.000                                                            
   RMAX   =    1.950    core radius for proj-oper                               
   RAUG   =    1.300    factor for augmentation sphere                          
   RDEP   =    1.993    radius for radial grids                                 
   RDEPT  =    1.837    core radius for aug-charge                              
                                                                                
   Atomic configuration                                                         
    6 entries                                                                   
     n  l   j            E        occ.                                          
     1  0  0.50     -1785.8828   2.0000                                         
     2  0  0.50      -139.4969   2.0000                                         
     2  1  1.50       -95.5546   6.0000                                         
     3  0  0.50       -10.8127   2.0000                                         
     3  1  0.50        -4.0811   2.0000                                         
     3  2  1.50        -4.0817   0.0000                                         
   Description                                                                  
     l       E           TYP  RCUT    TYP  RCUT                                 
     0    -10.8127223     23  1.900                                             
     0     -7.6451159     23  1.900                                             
     1     -4.0811372     23  1.900                                             
     1      2.4879257     23  1.900                                             
     2     -4.0817478      7  1.900                                             
  local pseudopotential read in
  partial core-charges read in
  partial kinetic energy density read in
  atomic valenz-charges read in
  non local Contribution for L=           0  read in
    real space projection operators read in
  non local Contribution for L=           0  read in
    real space projection operators read in
  non local Contribution for L=           1  read in
    real space projection operators read in
  non local Contribution for L=           1  read in
    real space projection operators read in
    PAW grid and wavefunctions read in

   number of l-projection  operators is LMAX  =           4
   number of lm-projection operators is LMMAX =           8

 POTCAR:    PAW_PBE W 08Apr2002                   
   VRHFIN =W : 6s5d                                                             
   LEXCH  = PE                                                                  
   EATOM  =   204.6103 eV,   15.0384 Ry                                         
                                                                                
   TITEL  = PAW_PBE W 08Apr2002                                                 
   LULTRA =        F    use ultrasoft PP ?                                      
   IUNSCR =        1    unscreen: 0-lin 1-nonlin 2-no                           
   RPACOR =    2.330    partial core radius                                     
   POMASS =  183.850; ZVAL   =    6.000    mass and valenz                      
   RCORE  =    2.750    outmost cutoff radius                                   
   RWIGS  =    2.750; RWIGS  =    1.455    wigner-seitz radius (au A)           
   ENMAX  =  223.057; ENMIN  =  167.293 eV                                      
   RCLOC  =    2.147    cutoff for local pot                                    
   LCOR   =        T    correct aug charges                                     
   LPAW   =        T    paw PP                                                  
   EAUG   =  373.438                                                            
   DEXC   =    0.000                                                            
   RMAX   =    2.801    core radius for proj-oper                               
   RAUG   =    1.300    factor for augmentation sphere                          
   RDEP   =    2.886    radius for radial grids                                 
   RDEPT  =    2.230    core radius for aug-charge                              
                                                                                
   Atomic configuration                                                         
   16 entries                                                                   
     n  l   j            E        occ.                                          
     1  0  0.50    -69465.5836   2.0000                                         
     2  0  0.50    -11986.2642   2.0000                                         
     2  1  1.50    -10479.8616   6.0000                                         
     3  0  0.50     -2759.0758   2.0000                                         
     3  1  1.50     -2313.1857   6.0000                                         
     3  2  2.50     -1801.1185  10.0000                                         
     4  0  0.50      -567.6791   2.0000                                         
     4  1  1.50      -421.4694   6.0000                                         
     4  2  2.50      -236.3473  10.0000                                         
     4  3  3.50       -31.2666  14.0000                                         
     5  0  0.50       -77.1085   2.0000                                         
     5  1  1.50       -41.3856   6.0000                                         
     5  2  2.50        -3.3185   5.0000                                         
     6  0  0.50        -5.1438   1.0000                                         
     6  1  0.50        -3.8096   0.0000                                         
     5  3  2.50        -1.3606   0.0000                                         
   Description                                                                  
     l       E           TYP  RCUT    TYP  RCUT                                 
     2     -3.3185288     23  2.500                                             
     2     -1.5965414     23  2.500                                             
     0     -5.1438054     23  2.500                                             
     0      4.9117504     23  2.500                                             
     1      2.7211652     23  2.750                                             
     1     27.2116520     23  2.750                                             
  local pseudopotential read in
  partial core-charges read in
  partial kinetic energy density read in
  atomic valenz-charges read in
  non local Contribution for L=           2  read in
    real space projection operators read in
  non local Contribution for L=           2  read in
    real space projection operators read in
  non local Contribution for L=           0  read in
    real space projection operators read in
  non local Contribution for L=           0  read in
    real space projection operators read in
  non local Contribution for L=           1  read in
    real space projection operators read in
  non local Contribution for L=           1  read in
    real space projection operators read in
    PAW grid and wavefunctions read in

   number of l-projection  operators is LMAX  =           6
   number of lm-projection operators is LMMAX =          18

 Optimization of the real space projectors (new method)

 maximal supplied QI-value         = 25.13
 optimisation between [QCUT,QGAM] = [ 11.31, 22.87] = [ 35.82,146.48] Ry 
 Optimized for a Real-space Cutoff    1.00 Angstroem

   l    n(q)    QCUT    max X(q) W(low)/X(q) W(high)/X(q)  e(spline) 
   0      7    11.310   115.676    0.43E-03    0.13E-02    0.19E-06
   0      7    11.310    87.132    0.43E-03    0.13E-02    0.18E-06
   1      6    11.310     4.429    0.42E-03    0.74E-03    0.11E-06
   1      6    11.310     2.733    0.34E-03    0.55E-03    0.92E-07
 Optimization of the real space projectors (new method)

 maximal supplied QI-value         = 34.20
 optimisation between [QCUT,QGAM] = [ 11.29, 22.57] = [ 35.68,142.71] Ry 
 Optimized for a Real-space Cutoff    1.16 Angstroem

   l    n(q)    QCUT    max X(q) W(low)/X(q) W(high)/X(q)  e(spline) 
   0      8    11.287    19.460    0.40E-03    0.73E-03    0.16E-06
   0      8    11.287    12.209    0.38E-03    0.70E-03    0.15E-06
   1      7    11.287     4.655    0.22E-03    0.25E-04    0.22E-06
 Optimization of the real space projectors (new method)

 maximal supplied QI-value         = 24.76
 optimisation between [QCUT,QGAM] = [ 11.39, 22.77] = [ 36.31,145.25] Ry 
 Optimized for a Real-space Cutoff    1.00 Angstroem

   l    n(q)    QCUT    max X(q) W(low)/X(q) W(high)/X(q)  e(spline) 
   0      7    11.387    20.381    0.39E-03    0.13E-02    0.15E-06
   0      7    11.387    15.268    0.42E-03    0.14E-02    0.17E-06
   1      6    11.387     5.964    0.41E-03    0.11E-02    0.17E-06
   1      6    11.387     5.382    0.39E-03    0.87E-03    0.15E-06
 Optimization of the real space projectors (new method)

 maximal supplied QI-value         = 19.84
 optimisation between [QCUT,QGAM] = [ 11.31, 22.82] = [ 35.82,145.81] Ry 
 Optimized for a Real-space Cutoff    1.16 Angstroem

   l    n(q)    QCUT    max X(q) W(low)/X(q) W(high)/X(q)  e(spline) 
   0      8    11.310   159.560    0.27E-03    0.30E-03    0.39E-07
   0      8    11.310   115.863    0.27E-03    0.30E-03    0.38E-07
   1      7    11.310    88.339    0.28E-03    0.28E-03    0.77E-07
   1      7    11.310    48.592    0.27E-03    0.27E-03    0.74E-07
 Optimization of the real space projectors (new method)

 maximal supplied QI-value         = 13.61
 optimisation between [QCUT,QGAM] = [ 11.43, 22.86] = [ 36.58,146.31] Ry 
 Optimized for a Real-space Cutoff    1.56 Angstroem

   l    n(q)    QCUT    max X(q) W(low)/X(q) W(high)/X(q)  e(spline) 
   2     10    11.429   130.855    0.22E-03    0.64E-03    0.11E-05
   2     10    11.429   114.007    0.22E-03    0.64E-03    0.11E-05
   0     11    11.429    84.709    0.39E-04    0.67E-04    0.23E-06
   0     11    11.429    49.163    0.35E-04    0.62E-04    0.21E-06
   1     10    11.429    15.765    0.84E-04    0.15E-03    0.24E-06
   1     10    11.429    10.638    0.58E-04    0.12E-03    0.19E-06

 ----------------------------------------------------------------------------- 
|                                                                             |
|  ADVICE TO THIS USER RUNNING 'VASP/VAMP'   (HEAR YOUR MASTER'S VOICE ...):  |
|                                                                             |
|      You enforced a specific xc-type in the INCAR file,                     |
|      a different type was found on the POTCAR file                          |
|          I HOPE YOU KNOW, WHAT YOU ARE  DOING                               |
|                                                                             |
 ----------------------------------------------------------------------------- 

  PAW_PBE C 08Apr2002                   :
 energy of atom  1       EATOM= -147.1560
 kinetic energy error for atom=    0.0076 (will be added to EATOM!!)
  PAW_PBE H 15Jun2001                   :
 energy of atom  2       EATOM=  -12.4884
 kinetic energy error for atom=    0.0020 (will be added to EATOM!!)
  PAW_PBE O 08Apr2002                   :
 energy of atom  3       EATOM= -432.3788
 kinetic energy error for atom=    0.0224 (will be added to EATOM!!)
  PAW_PBE Si 05Jan2001                  :
 energy of atom  4       EATOM= -103.0669
 kinetic energy error for atom=    0.0006 (will be added to EATOM!!)
  PAW_PBE W 08Apr2002                   :
 energy of atom  5       EATOM= -204.6103
 kinetic energy error for atom=    0.0017 (will be added to EATOM!!)


 POSCAR:  C  H  O Si  W                          
  positions in direct lattice
  velocities in cartesian coordinates
 exchange correlation table for  LEXCH =        9
   RHO(1)=    0.500       N(1)  =     2000
   RHO(2)=  100.500       N(2)  =     4000

 VTST: version 3.2, (02/03/18)

 CHAIN: initializing optimizer
 
 OPT: Using VASP Conjugate-Gradient optimizer
 CHAIN: Read ICHAIN            0

 POSCAR:  C  H  O Si  W                          
  positions in direct lattice
  velocities in cartesian coordinates



--------------------------------------------------------------------------------------------------------


 ion  position               nearest neighbor table
   1  0.557  0.495  0.729-  49 1.09  50 1.10 276 1.90
   2  0.518  0.691  0.788-  52 1.10  53 1.10  51 1.10   3 1.51
   3  0.578  0.691  0.768-  54 1.10   4 1.34   2 1.51
   4  0.619  0.644  0.783-  55 1.09  56 1.09   3 1.34
   5  0.761  0.104  0.651- 131 0.97
   6  0.926  0.279  0.356-  79 0.98
   7  0.793  0.207  0.373- 114 0.97
   8  0.975  0.944  0.325- 123 0.97
   9  0.626  0.963  0.375- 125 0.98
  10  0.821  0.995  0.369- 143 0.97
  11  0.750  0.141  0.458- 181 0.98
  12  0.915  0.249  0.509- 186 0.97
  13  0.583  0.304  0.306- 191 0.97
  14  0.891  0.335  0.616-  97 0.98
  15  0.589  0.359  0.615- 142 0.97
  16  0.593  0.871  0.578- 184 0.99
  17  0.033  0.337  0.653- 190 0.97
  18  0.935  0.420  0.454- 179 0.98
  19  0.746  0.530  0.422-  93 1.00
  20  0.797  0.382  0.634- 171 0.97
  21  0.591  0.569  0.378- 105 0.99
  22  0.718  0.646  0.383- 128 0.99
  23  0.841  0.542  0.420- 134 0.98
  24  0.005  0.604  0.358- 139 0.97
  25  0.828  0.712  0.468- 180 0.99
  26  0.876  0.599  0.722-  59 0.97
  27  0.520  0.986  0.422- 141 0.99
  28  0.223  0.980  0.393- 182 1.00
  29  0.216  0.238  0.319- 197 0.99
  30  0.158  0.330  0.279- 188 0.97
  31  0.342  0.156  0.331- 189 0.98
  32  0.223  0.046  0.323- 196 0.97
  33  0.511  0.824  0.547- 199 0.97
  34  0.374  0.236  0.646-  84 0.97
  35  0.245  0.092  0.598- 135 0.98
  36  0.315  0.487  0.442-  58 0.99
  37  0.409  0.439  0.406- 147 0.98
  38  0.398  0.793  0.389- 185 0.97
  39  0.244  0.655  0.294- 193 0.97
  40  0.312  0.418  0.369- 194 0.98
  41  0.405  0.584  0.339- 195 0.97
  42  0.139  0.488  0.352- 187 0.98
  43  0.593  0.698  0.352-  88 0.97
  44  0.469  0.861  0.444- 198 0.99
  45  0.123  0.324  0.613- 107 0.97
  46  0.073  0.665  0.646- 138 0.97
  47  0.245  0.388  0.682- 183 0.97
  48  0.244  0.813  0.669- 192 0.97
  49  0.568  0.466  0.763-   1 1.09
  50  0.590  0.536  0.716-   1 1.10
  51  0.507  0.745  0.805-   2 1.10
  52  0.511  0.648  0.816-   2 1.10
  53  0.487  0.682  0.758-   2 1.10
  54  0.588  0.732  0.740-   3 1.10
  55  0.662  0.645  0.767-   4 1.09
  56  0.610  0.602  0.811-   4 1.09
  57  0.369  0.648  0.439- 230 1.66 265 1.68
  58  0.347  0.504  0.420-  36 0.99 265 1.67
  59  0.861  0.566  0.697-  26 0.97 236 1.64
  60  0.349  0.954  0.531- 241 1.68 274 1.70
  61  0.033  0.933  0.528- 256 1.63 267 1.66
  62  0.636  0.079  0.489- 234 1.60 223 1.65
  63  0.069  0.052  0.395- 222 1.64 214 1.65
  64  0.452  0.130  0.421- 239 1.65 220 1.65
  65  0.806  0.214  0.483- 238 1.67 235 1.69
  66  0.973  0.182  0.599- 216 1.63 246 1.65
  67  0.275  0.299  0.449- 262 1.65 272 1.66
  68  0.556  0.775  0.442- 243 1.51 270 1.66
  69  0.393  0.970  0.620- 260 1.65 274 1.66
  70  0.178  0.350  0.405- 262 1.66 237 1.67
  71  0.866  0.684  0.637- 240 1.64 236 1.65
  72  0.866  0.967  0.467- 232 1.60 247 1.65
  73  0.301  0.761  0.458- 230 1.65 244 1.67
  74  0.422  0.261  0.380- 239 1.67 259 1.67
  75  0.811  0.466  0.520- 266 1.63 213 1.64
  76  0.984  0.073  0.521- 256 1.68 216 1.69
  77  0.517  0.456  0.625- 275 1.66 276 1.96
  78  0.035  0.920  0.429- 267 1.64 214 1.65
  79  0.963  0.303  0.351-   6 0.98 215 1.65
  80  0.070  0.336  0.376- 215 1.64 237 1.65
  81  0.208  0.729  0.395- 244 1.66 254 1.67
  82  0.039  0.419  0.499- 269 1.64 242 1.65
  83  0.240  0.285  0.588- 250 1.63 227 1.63
  84  0.398  0.192  0.644-  34 0.97 221 1.64
  85  0.455  0.559  0.583- 275 1.68 252 1.68
  86  0.910  0.749  0.557- 240 1.64 219 1.65
  87  0.869  0.108  0.442- 247 1.64 235 1.65
  88  0.573  0.667  0.376-  43 0.97 243 1.68
  89  0.142  0.159  0.376- 268 1.65 222 1.65
  90  0.350  0.766  0.607- 212 1.62 253 1.64
  91  0.911  0.845  0.483- 232 1.62 219 1.66
  92  0.061  0.537  0.442- 269 1.66 211 1.67
  93  0.708  0.555  0.420-  19 1.00 225 1.67
  94  0.075  0.817  0.483- 267 1.50 249 1.65
  95  0.700  0.828  0.433- 224 1.53 257 1.65
  96  0.730  0.049  0.543- 223 1.64 258 1.64
  97  0.919  0.302  0.632-  14 0.98 246 1.63
  98  0.735  0.853  0.613- 231 1.66 228 1.68
  99  0.625  0.527  0.486- 233 1.58 225 1.68
 100  0.557  0.630  0.467- 243 1.52 233 1.63
 101  0.426  0.244  0.554- 264 1.68 221 1.68
 102  0.978  0.728  0.477- 249 1.65 219 1.65
 103  0.654  0.594  0.633- 271 1.64 217 1.67
 104  0.397  0.746  0.516- 212 1.66 230 1.66
 105  0.603  0.518  0.386-  21 0.99 225 1.65
 106  0.719  0.631  0.557- 255 1.63 271 1.64
 107  0.148  0.365  0.621-  45 0.97 227 1.64
 108  0.066  0.548  0.542- 269 1.63 273 1.64
 109  0.819  0.885  0.537- 232 1.65 231 1.67
 110  0.828  0.355  0.452- 238 1.65 213 1.65
 111  0.528  0.298  0.532- 264 1.62 245 1.63
 112  0.737  0.499  0.595- 271 1.65 266 1.66
 113  0.557  0.172  0.395- 251 1.59 220 1.64
 114  0.806  0.256  0.383-   7 0.97 238 1.67
 115  0.237  0.953  0.508- 241 1.59 226 1.67
 116  0.693  0.776  0.541- 255 1.64 228 1.64
 117  0.924  0.950  0.553- 256 1.65 232 1.65
 118  0.526  0.318  0.399- 251 1.45 259 1.66
 119  0.470  0.987  0.547- 260 1.69 261 1.70
 120  0.838  0.095  0.540- 235 1.66 258 1.66
 121  0.538  0.116  0.486- 234 1.61 220 1.67
 122  0.350  0.187  0.440- 272 1.63 239 1.65
 123  0.012  0.962  0.335-   8 0.97 214 1.65
 124  0.459  0.588  0.677- 252 1.66 276 1.95
 125  0.655  0.925  0.379-   9 0.98 224 1.66
 126  0.076  0.686  0.436- 211 1.65 249 1.66
 127  0.452  0.403  0.553- 275 1.67 264 1.71
 128  0.719  0.700  0.380-  22 0.99 257 1.65
 129  0.448  0.701  0.602- 212 1.63 252 1.63
 130  0.753  0.709  0.476- 255 1.63 257 1.69
 131  0.779  0.121  0.621-   5 0.97 258 1.64
 132  0.993  0.308  0.448- 242 1.66 215 1.68
 133  0.532  0.508  0.530- 275 1.64 233 1.65
 134  0.817  0.499  0.423-  23 0.98 213 1.69
 135  0.236  0.144  0.605-  35 0.98 250 1.62
 136  0.204  0.831  0.471- 226 1.50 244 1.63
 137  0.240  0.558  0.523- 229 1.65 218 1.66
 138  0.061  0.625  0.624-  46 0.97 273 1.63
 139  0.046  0.602  0.354-  24 0.97 211 1.65
 140  0.801  0.979  0.606- 231 1.66 258 1.68
 141  0.538  0.028  0.405-  27 0.99 220 1.66
 142  0.606  0.313  0.605-  15 0.97 245 1.64
 143  0.862  0.004  0.369-  10 0.97 247 1.66
 144  0.095  0.149  0.467- 248 1.62 222 1.65
 145  0.171  0.204  0.531- 248 1.61 250 1.63
 146  0.641  0.704  0.455- 243 1.65 257 1.66
 147  0.437  0.410  0.386-  37 0.98 259 1.66
 148  0.575  0.058  0.571- 261 1.62 234 1.65
 149  0.151  0.593  0.389- 254 1.68 211 1.68
 150  0.268  0.602  0.392- 265 1.65 254 1.67
 151  0.440  0.322  0.470- 264 1.64 259 1.69
 152  0.238  0.159  0.430- 268 1.65 272 1.67
 153  0.073  0.150  0.563- 248 1.64 216 1.64
 154  0.845  0.544  0.600- 236 1.66 266 1.66
 155  0.621  0.280  0.411- 263 1.65 251 1.66
 156  0.603  0.892  0.467- 270 1.29 224 1.67
 157  0.031  0.195  0.389- 215 1.66 222 1.66
 158  0.608  0.195  0.547- 234 1.62 245 1.64
 159  0.133  0.938  0.479- 267 1.65 226 1.66
 160  0.080  0.280  0.512- 242 1.64 248 1.65
 161  0.373  0.101  0.568- 274 1.64 221 1.69
 162  0.066  0.697  0.536- 249 1.63 273 1.63
 163  0.666  0.415  0.430- 225 1.65 263 1.65
 164  0.799  0.730  0.564- 255 1.61 240 1.63
 165  0.704  0.957  0.470- 223 1.65 224 1.66
 166  0.597  0.633  0.553- 233 1.62 217 1.63
 167  0.723  0.294  0.452- 238 1.63 263 1.64
 168  0.978  0.314  0.547- 242 1.64 246 1.67
 169  0.158  0.630  0.570- 229 1.63 273 1.65
 170  0.633  0.327  0.508- 245 1.63 263 1.65
 171  0.820  0.396  0.606-  20 0.97 266 1.65
 172  0.959  0.027  0.417- 247 1.64 214 1.65
 173  0.282  0.195  0.519- 272 1.63 250 1.65
 174  0.249  0.443  0.461- 218 1.66 262 1.71
 175  0.271  0.848  0.568- 241 1.64 253 1.65
 176  0.204  0.686  0.487- 229 1.63 244 1.66
 177  0.147  0.476  0.493- 218 1.63 269 1.65
 178  0.225  0.422  0.556- 218 1.61 227 1.64
 179  0.911  0.453  0.474-  18 0.98 213 1.65
 180  0.870  0.705  0.464-  25 0.99 219 1.65
 181  0.738  0.093  0.445-  11 0.98 223 1.66
 182  0.222  0.930  0.408-  28 1.00 226 1.64
 183  0.255  0.402  0.648-  47 0.97 227 1.65
 184  0.630  0.883  0.593-  16 0.99 228 1.62
 185  0.410  0.789  0.423-  38 0.97 230 1.68
 186  0.918  0.196  0.508-  12 0.97 235 1.65
 187  0.133  0.444  0.332-  42 0.98 237 1.65
 188  0.155  0.304  0.311-  30 0.97 237 1.69
 189  0.373  0.131  0.348-  31 0.98 239 1.66
 190  0.035  0.292  0.633-  17 0.97 246 1.66
 191  0.573  0.257  0.320-  13 0.97 251 1.66
 192  0.244  0.769  0.650-  48 0.97 253 1.64
 193  0.207  0.648  0.310-  39 0.97 254 1.65
 194  0.275  0.392  0.367-  40 0.98 262 1.66
 195  0.365  0.598  0.342-  41 0.97 265 1.67
 196  0.226  0.056  0.358-  32 0.97 268 1.69
 197  0.241  0.196  0.329-  29 0.99 268 1.66
 198  0.501  0.892  0.455-  44 0.99 270 1.60
 199  0.550  0.827  0.534-  33 0.97 270 1.67
 200  0.545  0.647  0.634- 217 1.65 252 1.67
 201  0.479  0.119  0.596- 261 1.65 221 1.65
 202  0.263  0.693  0.569- 253 1.65 229 1.65
 203  0.444  0.844  0.583- 260 1.66 212 1.69
 204  0.765  0.617  0.649- 271 1.65 236 1.66
 205  0.845  0.832  0.623- 240 1.66 231 1.68
 206  0.640  0.740  0.621- 217 1.67 228 1.71
 207  0.008  0.033  0.603- 216 1.69 256 1.69
 208  0.285  1.000  0.594- 274 1.69 241 1.70
 209  0.505  0.970  0.629- 260 1.69 261 1.70
 210  0.447  0.429  0.723- 276 1.72
 211  0.083  0.606  0.406- 139 1.65 126 1.65  92 1.67 149 1.68 269 3.13
 212  0.409  0.764  0.575-  90 1.62 129 1.63 104 1.66 203 1.69 253 3.06
 213  0.842  0.441  0.468-  75 1.64 110 1.65 179 1.65 134 1.69
 214  0.017  0.990  0.394-  63 1.65 172 1.65  78 1.65 123 1.65 267 3.11 222 3.13
 215  0.015  0.284  0.391-  80 1.64  79 1.65 157 1.66 132 1.68 242 3.11 222 3.11
 216  0.009  0.115  0.573-  66 1.63 153 1.64  76 1.69 207 1.69 256 2.39 248 3.05 246 3.07
 217  0.609  0.657  0.611- 166 1.63 200 1.65 103 1.67 206 1.67 271 2.87
 218  0.214  0.476  0.510- 178 1.61 177 1.63 174 1.66 137 1.66 229 3.10 262 3.14
 219  0.915  0.756  0.496- 102 1.65 180 1.65  86 1.65  91 1.66 232 2.99 240 3.03
 220  0.521  0.110  0.426- 113 1.64  64 1.65 141 1.66 121 1.67 251 3.08 234 3.12
 221  0.419  0.166  0.588-  84 1.64 201 1.65 101 1.68 161 1.69 274 3.13 261 3.14
 222  0.083  0.139  0.407-  63 1.64 144 1.65  89 1.65 157 1.66 215 3.11 214 3.13 268 3.14
 223  0.702  0.045  0.487-  96 1.64 165 1.65  62 1.65 181 1.66 234 3.09 224 3.10 258 3.15
 224  0.665  0.898  0.437-  95 1.53 165 1.66 125 1.66 156 1.67 270 2.83 257 3.06 223 3.10
 225  0.650  0.504  0.430- 105 1.65 163 1.65  93 1.67  99 1.68 233 3.07
 226  0.198  0.912  0.464- 136 1.50 182 1.64 159 1.66 115 1.67 244 3.01 241 3.05 267 3.07
 227  0.216  0.366  0.604-  83 1.63 178 1.64 107 1.64 183 1.65
 228  0.673  0.814  0.595- 184 1.62 116 1.64  98 1.68 206 1.71 255 2.90
 229  0.217  0.641  0.538- 169 1.63 176 1.63 202 1.65 137 1.65 244 3.10 218 3.10 273 3.13
 230  0.369  0.735  0.459-  73 1.65  57 1.66 104 1.66 185 1.68
 231  0.797  0.889  0.596- 140 1.66  98 1.66 109 1.67 205 1.68 240 2.86 232 2.99 258 3.15
 232  0.880  0.912  0.512-  72 1.60  91 1.62 109 1.65 117 1.65 219 2.99 231 2.99 256 3.05 247 3.13

 233  0.576  0.574  0.512-  99 1.58 166 1.62 100 1.63 133 1.65 243 3.00 225 3.07
 234  0.590  0.115  0.525-  62 1.60 121 1.61 158 1.62 148 1.65 261 2.85 223 3.09 245 3.12 220 3.12

 235  0.858  0.152  0.495- 186 1.65  87 1.65 120 1.66  65 1.69 247 3.07 238 3.15
 236  0.835  0.604  0.646-  59 1.64  71 1.65 154 1.66 204 1.66 271 2.93 240 3.01 266 3.01
 237  0.134  0.360  0.357- 187 1.65  80 1.65  70 1.67 188 1.69 262 3.11
 238  0.791  0.280  0.442- 167 1.63 110 1.65 114 1.67  65 1.67 235 3.15
 239  0.399  0.177  0.396-  64 1.65 122 1.65 189 1.66  74 1.67 259 3.07
 240  0.856  0.750  0.597- 164 1.63  86 1.64  71 1.64 205 1.66 231 2.86 236 3.01 219 3.03
 241  0.283  0.933  0.550- 115 1.59 175 1.64  60 1.68 208 1.70 274 2.38 226 3.05
 242  0.023  0.330  0.502- 160 1.64 168 1.64  82 1.65 132 1.66 246 3.11 215 3.11 248 3.13
 243  0.575  0.695  0.436-  68 1.51 100 1.52 146 1.65  88 1.68 233 3.00 270 3.06 257 3.10
 244  0.230  0.753  0.452- 136 1.63 176 1.66  81 1.66  73 1.67 254 2.97 226 3.01 229 3.10
 245  0.594  0.284  0.548- 170 1.63 111 1.63 142 1.64 158 1.64 234 3.12
 246  0.975  0.272  0.603-  97 1.63  66 1.65 190 1.66 168 1.67 216 3.07 242 3.11
 247  0.889  0.025  0.424-  87 1.64 172 1.64  72 1.65 143 1.66 235 3.07 232 3.13
 248  0.105  0.195  0.518- 145 1.61 144 1.62 153 1.64 160 1.65 216 3.05 242 3.13
 249  0.048  0.733  0.483- 162 1.63 102 1.65  94 1.65 126 1.66 267 3.05 273 3.14
 250  0.232  0.205  0.561- 135 1.62  83 1.63 145 1.63 173 1.65 272 3.02
 251  0.561  0.258  0.381- 118 1.45 113 1.59 155 1.66 191 1.66 259 2.87 220 3.08
 252  0.477  0.625  0.623- 129 1.63 124 1.66 200 1.67  85 1.68 275 3.01 276 3.06
 253  0.281  0.769  0.598- 192 1.64  90 1.64 202 1.65 175 1.65 212 3.06
 254  0.209  0.643  0.372- 193 1.65 150 1.67  81 1.67 149 1.68 244 2.97
 255  0.740  0.711  0.536- 164 1.61 106 1.63 130 1.63 116 1.64 228 2.90 257 2.90 271 3.07
 256  0.987  0.991  0.550-  61 1.63 117 1.65  76 1.68 207 1.69 216 2.39 232 3.05
 257  0.703  0.737  0.434-  95 1.65 128 1.65 146 1.66 130 1.69 255 2.90 224 3.06 243 3.10
 258  0.788  0.059  0.577-  96 1.64 131 1.64 120 1.66 140 1.68 231 3.15 223 3.15
 259  0.456  0.328  0.409- 147 1.66 118 1.66  74 1.67 151 1.69 251 2.87 239 3.07
 260  0.451  0.934  0.595-  69 1.65 203 1.66 119 1.69 209 1.69 261 2.36 274 2.75
 261  0.510  0.039  0.586- 148 1.62 201 1.65 119 1.70 209 1.70 260 2.36 234 2.85 221 3.14
 262  0.244  0.370  0.421-  67 1.65  70 1.66 194 1.66 174 1.71 237 3.11 218 3.14
 263  0.659  0.330  0.450- 167 1.64 155 1.65 163 1.65 170 1.65
 264  0.460  0.317  0.529- 111 1.62 151 1.64 101 1.68 127 1.71
 265  0.337  0.590  0.399- 150 1.65 195 1.67  58 1.67  57 1.68
 266  0.803  0.477  0.580-  75 1.63 171 1.65 154 1.66 112 1.66 271 2.91 236 3.01
 267  0.069  0.899  0.481-  94 1.50  78 1.64 159 1.65  61 1.66 249 3.05 226 3.07 214 3.11
 268  0.212  0.144  0.374-  89 1.65 152 1.65 197 1.66 196 1.69 272 3.12 222 3.14
 269  0.078  0.494  0.495- 108 1.63  82 1.64 177 1.65  92 1.66 273 3.09 211 3.13
 270  0.558  0.852  0.475- 156 1.29 198 1.60  68 1.66 199 1.67 224 2.83 243 3.06
 271  0.718  0.585  0.610- 103 1.64 106 1.64 204 1.65 112 1.65 217 2.87 266 2.91 236 2.93 255 3.07

 272  0.287  0.210  0.459- 173 1.63 122 1.63  67 1.66 152 1.67 250 3.02 268 3.12
 273  0.088  0.625  0.568- 162 1.63 138 1.63 108 1.64 169 1.65 269 3.09 229 3.13 249 3.14
 274  0.354  0.016  0.579- 161 1.64  69 1.66 208 1.69  60 1.70 241 2.38 260 2.75 221 3.13
 275  0.487  0.478  0.571- 133 1.64  77 1.66 127 1.67  85 1.68 252 3.01 276 3.21
 276  0.490  0.490  0.690- 210 1.72   1 1.90 124 1.95  77 1.96 252 3.06 275 3.21

  LATTYP: Found a simple orthorhombic cell.
 ALAT       =    18.1212369514
 B/A-ratio  =     1.2919258579
 C/A-ratio  =     1.4835282260
  
  Lattice vectors:
  
 A1 = (   0.0000000000, -18.1212369514,   0.0000000000)
 A2 = ( -23.4112945954,   0.0000000000,   0.0000000000)
 A3 = (   0.0000000000,   0.0000000000, -26.8833665073)


Analysis of symmetry for initial positions (statically):
=====================================================================
 Subroutine PRICEL returns:
 Original cell was already a primitive cell.
 

 Routine SETGRP: Setting up the symmetry group for a 
 simple orthorhombic supercell.


 Subroutine GETGRP returns: Found  1 space group operations
 (whereof  1 operations were pure point group operations)
 out of a pool of  8 trial point group operations.


The static configuration has the point symmetry C_1 .


Analysis of symmetry for dynamics (positions and initial velocities):
=====================================================================
 Subroutine PRICEL returns:
 Original cell was already a primitive cell.
 

 Routine SETGRP: Setting up the symmetry group for a 
 simple orthorhombic supercell.


 Subroutine GETGRP returns: Found  1 space group operations
 (whereof  1 operations were pure point group operations)
 out of a pool of  8 trial point group operations.


The dynamic configuration has the point symmetry C_1 .


Analysis of constrained symmetry for selective dynamics:
=====================================================================
 Subroutine PRICEL returns:
 Original cell was already a primitive cell.
 

 Routine SETGRP: Setting up the symmetry group for a 
 simple orthorhombic supercell.


 Subroutine GETGRP returns: Found  1 space group operations
 (whereof  1 operations were pure point group operations)
 out of a pool of  8 trial point group operations.


The constrained configuration has the point symmetry C_1 .


 Subroutine INISYM returns: Found  1 space group operations
 (whereof  1 operations are pure point group operations),
 and found     1 'primitive' translations



 KPOINTS: KPOINTS created by Atomic Simulation Env

Automatic generation of k-mesh.
Space group operators:
 irot       det(A)        alpha          n_x          n_y          n_z        tau_x        tau_y        tau_z
    1     1.000000     0.000000     1.000000     0.000000     0.000000     0.000000     0.000000     0.000000
 
 Subroutine IBZKPT returns following result:
 ===========================================
 
 Found      5 irreducible k-points:
 
 Following reciprocal coordinates:
            Coordinates               Weight
  0.000000  0.000000  0.000000      1.000000
  0.333333  0.000000  0.000000      2.000000
  0.000000  0.333333  0.000000      2.000000
  0.333333  0.333333  0.000000      2.000000
 -0.333333  0.333333  0.000000      2.000000
 
 Following cartesian coordinates:
            Coordinates               Weight
  0.000000  0.000000  0.000000      1.000000
  0.014238  0.000000  0.000000      2.000000
  0.000000  0.018395  0.000000      2.000000
  0.014238  0.018395  0.000000      2.000000
 -0.014238  0.018395  0.000000      2.000000
 


--------------------------------------------------------------------------------------------------------




 Dimension of arrays:
   k-points           NKPTS =      5   k-points in BZ     NKDIM =      5   number of bands    NBANDS=    768
   number of dos      NEDOS =    301   number of ions     NIONS =    276
   non local maximal  LDIM  =      6   non local SUM 2l+1 LMDIM =     18
   total plane-waves  NPLWV = ******
   max r-space proj   IRMAX =   2748   max aug-charges    IRDMAX=   9808
   dimension x,y,z NGX =   128 NGY =  100 NGZ =  150
   dimension x,y,z NGXF=   256 NGYF=  200 NGZF=  300
   support grid    NGXF=   256 NGYF=  200 NGZF=  300
   ions per type =               4  52 154  65   1
   NGX,Y,Z   is equivalent  to a cutoff of   9.09,  9.17,  9.28 a.u.
   NGXF,Y,Z  is equivalent  to a cutoff of  18.18, 18.35, 18.55 a.u.

 SYSTEM =  unknown system                          
 POSCAR =   C  H  O Si  W                          

 Startparameter for this run:
   NWRITE =      2    write-flag & timer
   PREC   = normal    normal or accurate (medium, high low for compatibility)
   ISTART =      0    job   : 0-new  1-cont  2-samecut
   ICHARG =      2    charge: 1-file 2-atom 10-const
   ISPIN  =      1    spin polarized calculation?
   LNONCOLLINEAR =      F non collinear calculations
   LSORBIT =      F    spin-orbit coupling
   INIWAV =      1    electr: 0-lowe 1-rand  2-diag
   LASPH  =      T    aspherical Exc in radial PAW
   METAGGA=      F    non-selfconsistent MetaGGA calc.

 Electronic Relaxation 1
   ENCUT  =  500.0 eV  36.75 Ry    6.06 a.u.  42.68 33.04 49.01*2*pi/ulx,y,z
   ENINI  =  500.0     initial cutoff
   ENAUG  =  644.9 eV  augmentation charge cutoff
   NELM   =     60;   NELMIN=  2; NELMDL=  0     # of ELM steps 
   EDIFF  = 0.1E-03   stopping-criterion for ELM
   LREAL  =      T    real-space projection
   NLSPLINE    = F    spline interpolate recip. space projectors
   LCOMPAT=      F    compatible to vasp.4.4
   GGA_COMPAT  = T    GGA compatible to vasp.4.4-vasp.4.6
   LMAXPAW     = -100 max onsite density
   LMAXMIX     =    2 max onsite mixed and CHGCAR
   VOSKOWN=      0    Vosko Wilk Nusair interpolation
   ROPT   =   -0.00050  -0.00050  -0.00050  -0.00050
   ROPT   =   -0.00050
 Ionic relaxation
   EDIFFG = -.5E-01   stopping-criterion for IOM
   NSW    =    500    number of steps for IOM
   NBLOCK =      1;   KBLOCK =    500    inner block; outer block 
   IBRION =      2    ionic relax: 0-MD 1-quasi-New 2-CG
   NFREE  =      1    steps in history (QN), initial steepest desc. (CG)
   ISIF   =      0    stress and relaxation
   IWAVPR =     11    prediction:  0-non 1-charg 2-wave 3-comb
   ISYM   =      2    0-nonsym 1-usesym 2-fastsym
   LCORR  =      T    Harris-Foulkes like correction to forces

   POTIM  = 0.5000    time-step for ionic-motion
   TEIN   =    0.0    initial temperature
   TEBEG  =    0.0;   TEEND  =   0.0 temperature during run
   SMASS  =  -3.00    Nose mass-parameter (am)
   estimated Nose-frequenzy (Omega)   =  0.10E-29 period in steps =****** mass=  -0.125E-25a.u.
   SCALEE = 1.0000    scale energy and forces
   NPACO  =    256;   APACO  = 16.0  distance and # of slots for P.C.
   PSTRESS=    0.0 pullay stress

  Mass of Ions in am
   POMASS =  12.01  1.00 16.00 28.09183.85
  Ionic Valenz
   ZVAL   =   4.00  1.00  6.00  4.00  6.00
  Atomic Wigner-Seitz radii
   RWIGS  =  -1.00 -1.00 -1.00 -1.00 -1.00
  virtual crystal weights 
   VCA    =   1.00  1.00  1.00  1.00  1.00
   NELECT =    1258.0000    total number of electrons
   NUPDOWN=      -1.0000    fix difference up-down

 DOS related values:
   EMIN   =  10.00;   EMAX   =-10.00  energy-range for DOS
   EFERMI =   0.00
   ISMEAR =     0;   SIGMA  =   0.20  broadening in eV -4-tet -1-fermi 0-gaus

 Electronic relaxation 2 (details)
   IALGO  =     68    algorithm
   LDIAG  =      T    sub-space diagonalisation (order eigenvalues)
   LSUBROT=      F    optimize rotation matrix (better conditioning)
   TURBO    =      0    0=normal 1=particle mesh
   IRESTART =      0    0=no restart 2=restart with 2 vectors
   NREBOOT  =      0    no. of reboots
   NMIN     =      0    reboot dimension
   EREF     =   0.00    reference energy to select bands
   IMIX   =      4    mixing-type and parameters
     AMIX     =   0.40;   BMIX     =  1.00
     AMIX_MAG =   1.60;   BMIX_MAG =  1.00
     AMIN     =   0.10
     WC   =   100.;   INIMIX=   1;  MIXPRE=   1;  MAXMIX= -45

 Intra band minimization:
   WEIMIN = 0.0010     energy-eigenvalue tresh-hold
   EBREAK =  0.33E-07  absolut break condition
   DEPER  =   0.30     relativ break condition  

   TIME   =   0.40     timestep for ELM

  volume/ion in A,a.u.               =      41.32       278.86
  Fermi-wavevector in a.u.,A,eV,Ry     =   0.785120  1.483662  8.386815  0.616413
  Thomas-Fermi vector in A             =   1.889391

 Write flags
   LWAVE        =      F    write WAVECAR
   LDOWNSAMPLE  =      F    k-point downsampling of WAVECAR
   LCHARG       =      F    write CHGCAR
   LVTOT        =      F    write LOCPOT, total local potential
   LVHAR        =      F    write LOCPOT, Hartree potential only
   LELF         =      F    write electronic localiz. function (ELF)
   LORBIT       =      0    0 simple, 1 ext, 2 COOP (PROOUT), +10 PAW based schemes


 Dipole corrections
   LMONO  =      F    monopole corrections only (constant potential shift)
   LDIPOL =      T    correct potential (dipole corrections)
   IDIPOL =      3    1-x, 2-y, 3-z, 4-all directions 
   EPSILON=  1.0000000 bulk dielectric constant

 Exchange correlation treatment:
   GGA     =    RP    GGA type
   LEXCH   =     9    internal setting for exchange type
   VOSKOWN=      0    Vosko Wilk Nusair interpolation
   LHFCALC =     F    Hartree Fock is set to
   LHFONE  =     F    Hartree Fock one center treatment
   AEXX    =    0.0000 exact exchange contribution

 Linear response parameters
   LEPSILON=     F    determine dielectric tensor
   LRPA    =     F    only Hartree local field effects (RPA)
   LNABLA  =     F    use nabla operator in PAW spheres
   LVEL    =     F    velocity operator in full k-point grid
   LINTERFAST=   F  fast interpolation
   KINTER  =     0    interpolate to denser k-point grid
   CSHIFT  =0.1000    complex shift for real part using Kramers Kronig
   OMEGAMAX=  -1.0    maximum frequency
   DEG_THRESHOLD= 0.2000000E-02 threshold for treating states as degnerate
   RTIME   =   -0.100 relaxation time in fs
  (WPLASMAI=    0.000 imaginary part of plasma frequency in eV, 0.658/RTIME)
   DFIELD  = 0.0000000 0.0000000 0.0000000 field for delta impulse in time

 Orbital magnetization related:
   ORBITALMAG=     F  switch on orbital magnetization
   LCHIMAG   =     F  perturbation theory with respect to B field
   DQ        =  0.001000  dq finite difference perturbation B field
   LLRAUG    =     F  two centre corrections for induced B field



--------------------------------------------------------------------------------------------------------


 conjugate gradient relaxation of ions
   using selective dynamics as specified on POSCAR
 charge density and potential will be updated during run
 non-spin polarized calculation
 RMM-DIIS sequential band-by-band and
  variant of blocked Davidson during initial phase
 perform sub-space diagonalisation
    before iterative eigenvector-optimisation
 modified Broyden-mixing scheme, WC =      100.0
 initial mixing is a Kerker type mixing with AMIX =  0.4000 and BMIX =      1.0000
 Hartree-type preconditioning will be used
 using additional bands          139
 real space projection scheme for non local part
 use partial core corrections
 calculate Harris-corrections to forces   (improved forces if not selfconsistent)
 use gradient corrections 
 use of overlap-Matrix (Vanderbilt PP)
 Gauss-broadening in eV      SIGMA  =   0.20


--------------------------------------------------------------------------------------------------------


  energy-cutoff  :      500.00
  volume of cell :    11405.04
      direct lattice vectors                 reciprocal lattice vectors
    23.411294595  0.000000000  0.000000000     0.042714426  0.000000000  0.000000000
     0.000000000 18.121236951  0.000000000     0.000000000  0.055183871  0.000000000
     0.000000000  0.000000000 26.883366507     0.000000000  0.000000000  0.037197722

  length of vectors
    23.411294595 18.121236951 26.883366507     0.042714426  0.055183871  0.037197722



 k-points in units of 2pi/SCALE and weight: KPOINTS created by Atomic Simulation Env
   0.00000000  0.00000000  0.00000000       0.111
   0.01423814  0.00000000  0.00000000       0.222
   0.00000000  0.01839462  0.00000000       0.222
   0.01423814  0.01839462  0.00000000       0.222
  -0.01423814  0.01839462  0.00000000       0.222

 k-points in reciprocal lattice and weights: KPOINTS created by Atomic Simulation Env
   0.00000000  0.00000000  0.00000000       0.111
   0.33333333  0.00000000  0.00000000       0.222
   0.00000000  0.33333333  0.00000000       0.222
   0.33333333  0.33333333  0.00000000       0.222
  -0.33333333  0.33333333  0.00000000       0.222

 position of ions in fractional coordinates (direct lattice) 
   0.55743696  0.49528453  0.72905274
   0.51772025  0.69144524  0.78815565
   0.57800270  0.69067991  0.76848580
   0.61890123  0.64362012  0.78315199
   0.76052151  0.10394183  0.65098714
   0.92642768  0.27866896  0.35633493
   0.79333970  0.20727890  0.37345652
   0.97453911  0.94360860  0.32530279
   0.62573266  0.96347285  0.37523120
   0.82053840  0.99500666  0.36899263
   0.74999307  0.14117876  0.45803819
   0.91544860  0.24946310  0.50912790
   0.58349286  0.30426355  0.30592717
   0.89148748  0.33494546  0.61617806
   0.58856976  0.35861518  0.61512247
   0.59331296  0.87074369  0.57800154
   0.03322293  0.33705321  0.65298886
   0.93527051  0.41951423  0.45410146
   0.74613838  0.53031199  0.42248819
   0.79741995  0.38206718  0.63449724
   0.59110202  0.56868283  0.37803474
   0.71843379  0.64593279  0.38346059
   0.84115291  0.54242660  0.41959617
   0.00476455  0.60379815  0.35777830
   0.82835870  0.71235667  0.46794226
   0.87612126  0.59926264  0.72167766
   0.51999031  0.98556476  0.42170307
   0.22309457  0.98015484  0.39320502
   0.21637369  0.23785146  0.31923033
   0.15750105  0.32980623  0.27898292
   0.34154688  0.15558571  0.33077276
   0.22271586  0.04575893  0.32273843
   0.51138919  0.82418136  0.54662278
   0.37375567  0.23571191  0.64621648
   0.24453779  0.09235037  0.59820614
   0.31538097  0.48713646  0.44243467
   0.40895618  0.43873486  0.40569060
   0.39849950  0.79311361  0.38878680
   0.24420236  0.65543008  0.29432688
   0.31174138  0.41847571  0.36925764
   0.40547429  0.58427965  0.33881989
   0.13935762  0.48797365  0.35192946
   0.59326935  0.69798713  0.35239799
   0.46900683  0.86142747  0.44382838
   0.12278684  0.32410565  0.61329579
   0.07282045  0.66473020  0.64583358
   0.24531218  0.38753903  0.68191963
   0.24432250  0.81345482  0.66940811
   0.56785686  0.46577499  0.76334858
   0.58954243  0.53553852  0.71637215
   0.50726062  0.74544898  0.80484232
   0.51118008  0.64838277  0.81646077
   0.48675841  0.68212490  0.75785272
   0.58796654  0.73165990  0.73975469
   0.66179106  0.64496379  0.76715590
   0.61045771  0.60154011  0.81141780
   0.36894173  0.64835510  0.43900002
   0.34681565  0.50403387  0.42038813
   0.86060764  0.56644223  0.69666746
   0.34908886  0.95430950  0.53116763
   0.03345303  0.93261606  0.52849958
   0.63635548  0.07886855  0.48937667
   0.06864615  0.05226542  0.39511073
   0.45189954  0.12956232  0.42059728
   0.80588415  0.21365018  0.48316661
   0.97310436  0.18154321  0.59879485
   0.27476529  0.29917287  0.44851223
   0.55635417  0.77509129  0.44175101
   0.39299622  0.97019008  0.61992849
   0.17751724  0.34996845  0.40527312
   0.86629836  0.68439114  0.63732088
   0.86569601  0.96717693  0.46703846
   0.30104714  0.76093683  0.45792526
   0.42161095  0.26125222  0.37959630
   0.81108854  0.46551797  0.52009233
   0.98358062  0.07280333  0.52122649
   0.51688149  0.45569729  0.62545912
   0.03453641  0.91994776  0.42940526
   0.96303654  0.30319531  0.35125762
   0.06962669  0.33610577  0.37637178
   0.20829566  0.72864429  0.39536010
   0.03890126  0.41910192  0.49910875
   0.23984029  0.28523211  0.58809620
   0.39760014  0.19213358  0.64377067
   0.45500797  0.55923078  0.58345907
   0.90970605  0.74914496  0.55748087
   0.86912727  0.10804334  0.44227833
   0.57257679  0.66733185  0.37613173
   0.14242656  0.15912550  0.37597224
   0.34985106  0.76610839  0.60675788
   0.91099605  0.84504757  0.48317962
   0.06133801  0.53687171  0.44225348
   0.70833903  0.55516655  0.41995768
   0.07548726  0.81680680  0.48299416
   0.70046477  0.82755571  0.43263529
   0.73015570  0.04908131  0.54298361
   0.91894627  0.30204632  0.63207728
   0.73488799  0.85302584  0.61278477
   0.62512195  0.52739400  0.48637871
   0.55657330  0.62970304  0.46724942
   0.42635711  0.24390993  0.55435924
   0.97829009  0.72824363  0.47679564
   0.65405596  0.59429836  0.63349188
   0.39705575  0.74612308  0.51552369
   0.60269007  0.51766545  0.38567099
   0.71945287  0.63141492  0.55708762
   0.14828812  0.36486739  0.62105829
   0.06597706  0.54844469  0.54192916
   0.81887970  0.88467110  0.53661822
   0.82821553  0.35538514  0.45190334
   0.52764082  0.29838930  0.53222871
   0.73673771  0.49939301  0.59540547
   0.55743394  0.17243111  0.39490854
   0.80596408  0.25641257  0.38329286
   0.23744622  0.95325075  0.50791956
   0.69266061  0.77638461  0.54131556
   0.92387203  0.94978680  0.55296707
   0.52573722  0.31778112  0.39855594
   0.47012544  0.98668319  0.54676704
   0.83772443  0.09483587  0.53978341
   0.53790325  0.11641749  0.48623709
   0.35019344  0.18660873  0.43963639
   0.01176032  0.96241390  0.33524376
   0.45863683  0.58801370  0.67730918
   0.65496522  0.92539750  0.37922825
   0.07629334  0.68602626  0.43588102
   0.45174072  0.40312728  0.55257553
   0.71921944  0.70042085  0.37958300
   0.44841313  0.70112150  0.60170005
   0.75255106  0.70932458  0.47629548
   0.77858605  0.12113844  0.62069122
   0.99327462  0.30801347  0.44840298
   0.53230886  0.50777977  0.52955288
   0.81677759  0.49906173  0.42344221
   0.23641093  0.14421059  0.60508200
   0.20353331  0.83070132  0.47053363
   0.23994778  0.55839395  0.52273810
   0.06108517  0.62534826  0.62373068
   0.04607407  0.60234669  0.35417863
   0.80061679  0.97879140  0.60577620
   0.53799091  0.02769749  0.40450275
   0.60637340  0.31252655  0.60503953
   0.86154611  0.00408085  0.36920633
   0.09491131  0.14902284  0.46708233
   0.17148137  0.20393548  0.53097559
   0.64098865  0.70443872  0.45481558
   0.43678778  0.40976848  0.38641325
   0.57494944  0.05772290  0.57117049
   0.15143775  0.59340802  0.38895836
   0.26773979  0.60233753  0.39230630
   0.44025846  0.32219818  0.47032443
   0.23800967  0.15851113  0.42990119
   0.07277337  0.15030362  0.56258029
   0.84477758  0.54428412  0.59984133
   0.62117943  0.27993988  0.41090545
   0.60266699  0.89152667  0.46722346
   0.03138539  0.19528983  0.38899188
   0.60764550  0.19517709  0.54749446
   0.13279973  0.93835464  0.47948708
   0.08027327  0.28039672  0.51155957
   0.37272565  0.10143096  0.56791420
   0.06629948  0.69693985  0.53576180
   0.66648838  0.41538488  0.43001156
   0.79933977  0.72982473  0.56404427
   0.70383856  0.95720843  0.47018456
   0.59720306  0.63257330  0.55340704
   0.72284030  0.29368465  0.45166811
   0.97757870  0.31414879  0.54722106
   0.15809957  0.62966340  0.57030891
   0.63333384  0.32678308  0.50780070
   0.81952565  0.39638410  0.60552462
   0.95857820  0.02724304  0.41695300
   0.28218167  0.19495152  0.51861466
   0.24925755  0.44303289  0.46105570
   0.27057525  0.84787189  0.56814207
   0.20366815  0.68557317  0.48688872
   0.14712345  0.47606988  0.49254493
   0.22485178  0.42203375  0.55646299
   0.91141698  0.45274460  0.47371881
   0.86978818  0.70456011  0.46415352
   0.73812021  0.09283462  0.44522965
   0.22218344  0.92978119  0.40794682
   0.25483985  0.40230138  0.64827651
   0.63032095  0.88328606  0.59338666
   0.41022327  0.78906239  0.42343739
   0.91777135  0.19603829  0.50824515
   0.13254706  0.44353611  0.33227266
   0.15514768  0.30352326  0.31056042
   0.37300515  0.13090704  0.34795342
   0.03460301  0.29200498  0.63344403
   0.57268926  0.25686819  0.32009968
   0.24412593  0.76864497  0.64970690
   0.20737430  0.64840505  0.31036906
   0.27537441  0.39219130  0.36737583
   0.36535081  0.59758663  0.34222079
   0.22638085  0.05618082  0.35811888
   0.24120333  0.19607823  0.32934297
   0.50127293  0.89230162  0.45484168
   0.55030402  0.82710100  0.53422074
   0.54482511  0.64655380  0.63443187
   0.47865347  0.11948875  0.59599807
   0.26282016  0.69275490  0.56864304
   0.44407823  0.84435686  0.58310490
   0.76528667  0.61741307  0.64941304
   0.84470864  0.83192113  0.62292747
   0.63956371  0.73952871  0.62067314
   0.00814754  0.03346749  0.60298040
   0.28509691  0.99954610  0.59399939
   0.50476985  0.97001296  0.62948714
   0.44727423  0.42940203  0.72263391
   0.08322528  0.60642030  0.40641308
   0.40888070  0.76404090  0.57523509
   0.84176382  0.44145312  0.46783897
   0.01708949  0.99048204  0.39361135
   0.01470021  0.28419027  0.39108141
   0.00923490  0.11508343  0.57251983
   0.60929088  0.65734117  0.61089142
   0.21397032  0.47560271  0.50970998
   0.91506213  0.75556094  0.49625454
   0.52057854  0.11045563  0.42598659
   0.41875186  0.16649630  0.58835014
   0.08345253  0.13917208  0.40698087
   0.70189793  0.04484625  0.48732303
   0.66505935  0.89803746  0.43747644
   0.65009874  0.50402706  0.43015089
   0.19846065  0.91248223  0.46399069
   0.21550077  0.36642845  0.60367084
   0.67347530  0.81361996  0.59450830
   0.21655798  0.64110855  0.53837641
   0.36878912  0.73512773  0.45920930
   0.79734349  0.88861201  0.59562195
   0.87981658  0.91227858  0.51200091
   0.57592130  0.57405177  0.51164299
   0.58983937  0.11520339  0.52529919
   0.85812234  0.15211323  0.49517595
   0.83524653  0.60393314  0.64587147
   0.13373852  0.36031890  0.35687228
   0.79065529  0.27993925  0.44187265
   0.39917610  0.17749484  0.39600320
   0.85593188  0.75031692  0.59650975
   0.28260700  0.93270246  0.54966222
   0.02307473  0.33044751  0.50224551
   0.57455938  0.69549008  0.43556436
   0.23024095  0.75260050  0.45196954
   0.59389007  0.28379976  0.54831864
   0.97518593  0.27232264  0.60264071
   0.88890636  0.02540900  0.42420019
   0.10470032  0.19548256  0.51776357
   0.04814566  0.73303709  0.48263019
   0.23205982  0.20530000  0.56102923
   0.56140781  0.25778527  0.38122611
   0.47683864  0.62522241  0.62311841
   0.28060965  0.76927889  0.59772567
   0.20850083  0.64339984  0.37179454
   0.74034789  0.71095380  0.53583043
   0.98655833  0.99065387  0.55035543
   0.70310456  0.73681815  0.43426040
   0.78786792  0.05949701  0.57676800
   0.45631390  0.32845159  0.40928789
   0.45110917  0.93350088  0.59546186
   0.50963501  0.03874419  0.58644846
   0.24424715  0.37040632  0.42094710
   0.65852534  0.33000211  0.45034791
   0.46017634  0.31652194  0.52878010
   0.33729937  0.58994254  0.39908301
   0.80312340  0.47651270  0.57973406
   0.06920979  0.89885916  0.48050551
   0.21190758  0.14445432  0.37359659
   0.07823286  0.49398499  0.49468762
   0.55757019  0.85234010  0.47473025
   0.71825563  0.58484564  0.60956703
   0.28664212  0.21010174  0.45911077
   0.08789619  0.62541865  0.56758277
   0.35409332  0.01578620  0.57852306
   0.48697092  0.47828971  0.57139150
   0.48982637  0.49003679  0.69036356

 position of ions in cartesian coordinates  (Angst):
  13.05032085  8.97516840 19.59939193
  12.12050136 12.52984306 21.18827709
  13.53179150 12.51597425 20.65948550
  14.48927892 11.66319266 21.05376191
  17.80479321  1.88355460 17.50072579
  21.68887124  5.04982630  9.57948250
  18.57310935  3.75615001 10.03976840
  22.81522226 17.09935504  8.74523415
  14.64921175 17.45931981 10.08747787
  19.20986618 18.03075152  9.91976410
  17.55830880  2.55833368 12.31360861
  21.43183687  4.52057996 13.68707199
  13.66032332  5.51363181  8.22435231
  20.87087605  6.06962614 16.56494065
  13.77917997  6.49855065 16.53656273
  13.89022440 15.77895279 15.53862731
   0.77779176  6.10782102 17.55453894
  21.89589338  7.60211669 12.20777585
  17.46806539  9.60990927 11.35790489
  18.66863345  6.92352992 17.05742186
  13.83846346 10.30523625 10.16284657
  16.81946503 11.70510106 10.30871170
  19.69247867  9.82944087 11.28015755
   0.11154425 10.94156933  9.61828518
  19.39294954 12.90878407 12.57986315
  20.51113287 10.85938033 19.40112493
  12.17364643 17.85965257 11.33679820
   5.22293275 17.76161801 10.57067472
   5.06558822  4.31016263  8.58198589
   3.68730349  5.97649684  7.50000000
   7.99605454  2.81940543  8.89228530
   5.21406665  0.82920834  8.67629559
  11.97228294 14.93518566 14.69506048
   8.75010402  4.27139144 17.37247461
   5.72494629  1.67350297 16.08179482
   7.38347683  8.82751530 11.89413327
   9.57419369  7.95041833 10.90632902
   9.32938926 14.37219961 10.45189795
   5.71709332 11.87720376  7.91249741
   7.29826932  7.58329756  9.92688859
   9.49267817 10.58787004  9.10861924
   3.26254231  8.84268607  9.46104865
  13.88920341 12.64839014  9.47364424
  10.98005707 15.61013128 11.93160111
   2.87459888  5.87319533 16.48745560
   1.70482106 12.04573342 17.36218084
   5.74307563  7.02268652 18.33229541
   5.71990600 14.74080752 17.99594362
  13.29426420  8.44041904 20.52137961
  13.80195160  9.70462041 19.25849505
  11.87562782 13.50845761 21.63687099
  11.96738756 11.74949778 21.94921401
  11.39564461 12.36094697 20.37363256
  13.76505778 13.25858250 19.88709655
  15.49338557 11.68754174 20.62373321
  14.29160525 10.90065085 21.81364216
   8.63740362 11.74899635 11.80179838
   8.11940335  9.13371715 11.30144811
  20.14793898 10.26463383 18.72876669
   8.17262226 17.29326852 14.27957413
   0.78317865 16.90015661 14.20784778
  14.89790566  1.42919560 13.15609244
   1.60709516  0.94711408 10.62190669
  10.57955331  2.34782959 11.30707087
  18.86679123  3.87160553 12.98914499
  22.78163288  3.28978759 16.09762139
   6.43261122  5.42138248 12.05751853
  13.02497128 14.04561294 11.87575437
   9.20055019 17.58104439 16.66576477
   4.15590840  6.34186119 10.89510594
  20.28116607 12.40201404 17.13333075
  20.26706432 17.52644236 12.55556607
   7.04790320 13.78911669 12.31057251
   9.87045805  4.73421333 10.20482654
  18.98863275  8.43576146 13.98183276
  23.02689561  1.31928640 14.01232266
  12.10086483  8.25779866 16.81444670
   0.80854198 16.67059137 11.54385891
  22.54593219  5.49427402  9.44298747
   1.63005096  6.09065222 10.11814055
   4.87647100 13.20393591 10.62861051
   0.91072893  7.59464512 13.41772355
   5.61497160  5.16875858 15.81000563
   9.30833394  3.48169806 17.30672279
  10.65232562 10.13395341 15.68534402
  21.29739636 13.57543324 14.98696256
  20.34739459  1.95787901 11.88993046
  13.40476402 12.09287863 10.11168720
   3.33439013  2.88355087 10.10739962
   8.19046625 13.88283174 16.31169434
  21.32759690 15.31330727 12.98949491
   1.43600223  9.72877939 11.88926245
  16.58313365 10.06030463 11.28987623
   1.76725442 14.80154965 12.98450890
  16.39878711 14.99633320 11.63069310
  17.09389030  0.88941406 14.59722737
  21.51372182  5.47345290 16.99236509
  17.20467933 15.45788337 16.47371749
  14.63491423  9.55703168 13.07549710
  13.03010146 11.41099800 12.56123752
   9.98157196  4.41994969 14.90304252
  22.90303759 13.19667544 12.81787194
  15.31229682 10.76942142 17.03039435
   9.29558903 13.52067312 13.85901221
  14.10975474  9.38073831 10.36813464
  16.84332319 11.44201940 14.97639071
   3.47161696  6.61184844 16.69613765
   1.54460831  9.93849613 14.56888036
  19.17103384 16.03133461 14.42610426
  19.38959778  6.44001838 12.14868300
  12.35275479  5.40718313 14.30809941
  17.24798359  9.04961912 16.00650343
  13.05025009  3.12466491 10.61647095
  18.86866258  4.64651294 10.30420244
   5.55892333 17.27408272 13.65458756
  16.21608149 14.06904953 14.55238461
  21.62904035 17.21131157 14.86561631
  12.30818899  5.75858696 10.71452528
  11.00624512 17.87991986 14.69893869
  19.61221340  1.71854323 14.51119525
  12.59301152  2.10962891 13.07168996
   8.19848185  3.38158105 11.81890631
   0.27532438 17.44013032  9.01248080
  10.73728201 10.65553566 18.20835104
  15.33358375 16.76934745 10.19493214
   1.78612593 12.43164436 11.71794928
  10.57583513  7.30516488 14.85509048
  16.83785811 12.69249221 10.20446890
  10.49793187 12.70518878 16.17572304
  17.61819454 12.85383870 12.80442605
  18.22770733  2.19517832 16.68626952
  23.25384464  5.58158513 12.05458163
  12.46203945  9.20159761 14.23616404
  19.12182067  9.04361594 11.38355200
   5.53468595  2.61327419 16.26664104
   4.76497818 15.05333538 12.64952801
   5.61748822 10.11878901 14.05295990
   1.43008280 11.33208408 16.76798036
   1.07865368 10.91526713  9.52151395
  18.74347560 17.73691097 16.28530350
  12.59506368  0.50191281 10.87439573
  14.19598620  5.66336761 16.26549942
  20.16990973  0.07395004  9.92550906
   2.22199659  2.70047811 12.55674536
   4.01460083  3.69556321 14.27441142
  15.00637423 12.76530096 12.22697399
  10.22576747  7.42551173 10.38808912
  13.46031061  1.04601030 15.35498561
   3.54535369 10.75328740 10.45651017
   6.26813510 10.91510113 10.54651395
  10.30702050  5.83862960 12.64390410
   5.57211440  2.87241773 11.55719116
   1.70371871  2.72368746 15.12405211
  19.77733676  9.86310157 16.12575420
  14.54261459  5.07285683 11.04652184
  14.10921452 16.15556596 12.56053950
   0.73477264  3.53889327 10.45741115
  14.22576782  3.53685021 14.71849427
   3.10901351 17.00414686 12.89022683
   1.87930119  5.08113546 13.75244345
   8.72599002  1.83805444 15.26744548
   1.55215669 12.62941221 14.40308091
  15.60335581  7.52728779 11.56015827
  18.71357884 13.22532691 15.16340892
  16.47777184 17.34580083 12.64014391
  13.98129671 11.46301068 14.87744424
  16.92262720  5.32192920 12.14235921
  22.88638292  5.69276468 14.71114427
   3.70131566 11.41027959 15.33182336
  14.82716522  5.92171361 13.65139239
  19.18615650  7.18297018 16.27854036
  22.44155659  0.49367766 11.20910044
   6.60623825  3.53276269 13.94210795
   5.83544193  8.02830396 12.39472924
   6.33451696 15.36448750 15.27357143
   4.76813504 12.42343385 13.08920785
   3.44435051  8.62697504 13.24126574
   5.26407130  7.64777362 14.95959840
  21.33745138  8.20429214 12.73515651
  20.36286723 12.76750071 12.47800922
  17.28034963  1.68227812 11.96927179
   5.20160188 16.84878525 10.96698378
   5.96613090  7.29019866 17.42785491
  14.75662953 16.00623606 15.95223109
   9.60385771 14.29878657 11.38342242
  21.48621551  3.55245637 13.66334053
   3.10309823  8.03742301  8.93260776
   3.63220806  5.50021683  8.34890949
   8.73253334  2.37219755  9.35415932
   0.81010115  5.29149144 17.02910791
  13.40739699  4.65476936  8.60535697
   5.71530403 13.92879765 17.46630878
   4.85490080 11.74990154  8.34376522
   6.44687148  7.10699146  9.87629901
   8.55333550 10.82900896  9.20004704
   5.29986877  1.01806602  9.62744117
   5.64688233  3.55318002  8.85384768
  11.73544815 16.16960912 12.22767567
  12.88332950 14.98809316 14.36165188
  12.75506120 11.71635458 17.05566438
  11.20589729  2.16528403 16.02243459
   6.15296027 12.55357562 15.28703916
  10.39644620 15.30079069 15.67582280
  17.91635172 11.18828855 17.45840881
  19.77572277 15.07543985 16.74638746
  14.97301447 13.40117502 16.68578363
   0.19074449  0.60647228 16.21014298
   6.67448773 18.11301176 15.96870343
  11.81731560 17.57783461 16.92273346
  10.47126867  7.78129588 19.42683217
   1.94841153 10.98908596 10.92575188
   9.57242661 13.84536622 15.46425585
  19.70678074  7.99967650 12.57708649
   0.40008717 17.94875972 10.58159830
   0.34415087  5.14987929 10.51358498
   0.21620095  2.08545408 15.39126038
  14.26428822 11.91183516 16.42281797
   5.00932209  8.61850933 13.70272018
  21.42278905 13.69169878 13.34099278
  12.18741762  2.00159257 11.45195358
   9.80352321  3.01711890 15.81683257
   1.95373172  2.52197018 10.94101594
  16.43233932  0.81266960 13.10088356
  15.56990047 16.27354966 11.76083937
  15.21965321  9.13359373 11.56390395
   4.64622068 16.53530673 12.47363180
   5.04515198  6.64013676 16.22870448
  15.76692859 14.74380011 15.98238455
   5.06990268 11.61767990 14.47337033
   8.63383069 13.32142384 12.34509184
  18.66684333 16.10274884 16.01232306
  20.59764506 16.53161640 13.76430803
  13.48306319 10.40252811 13.75468604
  13.80890316  2.08762789 14.12181074
  20.08975493  2.75647992 13.31199648
  19.55420258 10.94401547 17.36319956
   3.13099191  6.52942423  9.59392828
  18.51026388  5.07284540 11.87902451
   9.34522920  3.21642612 10.64589911
  20.03847331 13.59667072 16.03619029
   6.61619578 16.90172223 14.77677080
   0.54020935  5.98811771 13.50205012
  13.45117902 12.60314055 11.70943634
   5.39023881 13.63805192 12.15046292
  13.90373539  5.14280276 14.74065088
  22.83036506  4.93482316 16.20101104
  20.81044864  0.46044249 11.40392910
   2.45117008  3.54238587 13.91922781
   1.12715225 13.28353886 12.97472440
   5.43282091  3.72028991 15.08235443
  13.14328356  4.67138795 10.24864117
  11.16340993 11.32980338 16.75152072
   6.56943516 13.94028505 16.06887819
   4.88127424 11.65920103  9.99508876
  17.33250259 12.88336231 14.40492576
  23.09660767 17.95187348 14.79540666
  16.46058793 13.35205634 11.67438144
  18.44500803  1.07815947 15.50546562
  10.68289909  5.95194918 11.00303640
  10.56104977 16.91619069 16.00801933
  11.93121538  0.70209270 15.76570891
   5.71814202  6.71222076 11.31647527
  15.41693082  5.98004644 12.10686792
  10.77332377  5.73576900 14.21538918
   7.89661487 10.69048858 10.72869482
  18.80215851  8.63499961 15.58520325
   1.62029077 16.28843974 12.91760565
   4.96103075  2.61769098 10.04353415
   1.83153245  8.95161914 13.29886860
  13.05343995 15.44545689 12.76234739
  16.81529408 10.59812636 16.38721390
   6.71066321  3.80730338 12.34244318
   2.05776371 11.33335946 15.25853574
   8.28978294  0.28606545 15.55264735
  11.40061964  8.66720124 15.36092717
  11.46746939  8.88007285 18.55929651



--------------------------------------------------------------------------------------------------------


 k-point  1 :   0.0000 0.0000 0.0000  plane waves:  289505
 k-point  2 :   0.3333 0.0000 0.0000  plane waves:  289422
 k-point  3 :   0.0000 0.3333 0.0000  plane waves:  289550
 k-point  4 :   0.3333 0.3333 0.0000  plane waves:  289551
 k-point  5 :  -0.3333 0.3333 0.0000  plane waves:  289551

 maximum and minimum number of plane-waves per node :     72451    72309

 maximum number of plane-waves:    289551
 maximum index in each direction: 
   IXMAX=   43   IYMAX=   33   IZMAX=   49
   IXMIN=  -43   IYMIN=  -33   IZMIN=  -49


 real space projection operators:
  total allocation   :      13783.10 KBytes
  max/ min on nodes  :       3450.98       3441.05


 parallel 3D FFT for wavefunctions:
    minimum data exchange during FFTs selected (reduces bandwidth)
 parallel 3D FFT for charge:
    minimum data exchange during FFTs selected (reduces bandwidth)


 total amount of memory used by VASP MPI-rank0   389770. kBytes
=======================================================================

   base      :      30000. kBytes
   nonlr-proj:      16961. kBytes
   fftplans  :      22890. kBytes
   grid      :      38557. kBytes
   one-center:       1073. kBytes
   wavefun   :     280289. kBytes

     INWAV:  cpu time    0.0001: real time    0.0000
 Broyden mixing: mesh for mixing (old mesh)
   NGX = 85   NGY = 67   NGZ = 99
  (NGX  =256   NGY  =200   NGZ  =300)
  gives a total of 563805 points

 initial charge density was supplied:
 charge density of overlapping atoms calculated
 number of electron    1258.0000000 magnetization 
 keeping initial charge density in first step


--------------------------------------------------------------------------------------------------------


 Maximum index for non-local projection operator          660
 Maximum index for augmentation-charges          515 (set IRDMAX)


--------------------------------------------------------------------------------------------------------


 First call to EWALD:  gamma=   0.079
 Maximum number of real-space cells 3x 3x 2
 Maximum number of reciprocal cells 3x 2x 3

    FEWALD:  cpu time    0.0203: real time    0.0203


--------------------------------------- Iteration      1(   1)  ---------------------------------------


    POTLOK:  cpu time    0.1837: real time    0.1954
    SETDIJ:  cpu time    0.3710: real time    0.3724
     EDDAV:  cpu time   47.5804: real time   47.7781
       DOS:  cpu time    0.0033: real time    0.0033
    --------------------------------------------
      LOOP:  cpu time   48.1383: real time   48.3493

 eigenvalue-minimisations  :  8592
 total energy-change (2. order) : 0.1287622E+05  (-0.4956080E+05)
 number of electron    1258.0000000 magnetization 
 augmentation part     1258.0000000 magnetization 

 DIPCOR: dipole corrections for dipol
 direction  3 min pos    73,
 dipolmoment           0.000000      0.000000      2.410730 electrons x Angstroem
 Tr[quadrupol]    -94929.659667

 energy correction for charged system         0.000000 eV
 dipol+quadrupol energy correction           -0.047251 eV
 added-field ion interaction        312.614934 eV  (added to PSCEN)


 Free energy of the ion-electron system (eV)
  ---------------------------------------------------
  alpha Z        PSCENC =       802.73063519
  Ewald energy   TEWEN  =    308234.31743683
  -Hartree energ DENC   =   -370462.95018054
  -exchange      EXHF   =         0.00000000
  -V(xc)+E(xc)   XCENC  =      3776.84866731
  PAW double counting   =     59955.48764796   -58973.29898038
  entropy T*S    EENTRO =        -1.65199908
  eigenvalues    EBANDS =     -5162.50718166
  atomic energy  EATOM  =     74707.24229009
  Solvation  Ediel_sol  =         0.00000000
  ---------------------------------------------------
  free energy    TOTEN  =     12876.21833572 eV

  energy without entropy =    12877.87033480  energy(sigma->0) =    12877.04433526


--------------------------------------------------------------------------------------------------------




--------------------------------------- Iteration      1(   2)  ---------------------------------------


     EDDAV:  cpu time   56.8512: real time   57.0920
       DOS:  cpu time    0.0014: real time    0.0014
    --------------------------------------------
      LOOP:  cpu time   56.8526: real time   57.0934

 eigenvalue-minimisations  : 10768
 total energy-change (2. order) :-0.1227145E+05  (-0.1188798E+05)
 number of electron    1258.0000000 magnetization 
 augmentation part     1258.0000000 magnetization 

 DIPCOR: dipole corrections for dipol
 direction  3 min pos    73,
 dipolmoment           0.000000      0.000000      2.410730 electrons x Angstroem
 Tr[quadrupol]    -94929.659667

 energy correction for charged system         0.000000 eV
 dipol+quadrupol energy correction           -0.047251 eV
 added-field ion interaction        312.614934 eV  (added to PSCEN)


 Free energy of the ion-electron system (eV)
  ---------------------------------------------------
  alpha Z        PSCENC =       802.73063519
  Ewald energy   TEWEN  =    308234.31743683
  -Hartree energ DENC   =   -370462.95018054
  -exchange      EXHF   =         0.00000000
  -V(xc)+E(xc)   XCENC  =      3776.84866731
  PAW double counting   =     59955.48764796   -58973.29898038
  entropy T*S    EENTRO =        -0.00000000
  eigenvalues    EBANDS =    -17435.61333545
  atomic energy  EATOM  =     74707.24229009
  Solvation  Ediel_sol  =         0.00000000
  ---------------------------------------------------
  free energy    TOTEN  =       604.76418100 eV

  energy without entropy =      604.76418100  energy(sigma->0) =      604.76418100


--------------------------------------------------------------------------------------------------------




--------------------------------------- Iteration      1(   3)  ---------------------------------------


     EDDAV:  cpu time   48.7086: real time   48.9099
       DOS:  cpu time    0.0016: real time    0.0016
    --------------------------------------------
      LOOP:  cpu time   48.7102: real time   48.9114

 eigenvalue-minimisations  :  8896
 total energy-change (2. order) :-0.2623830E+04  (-0.2614403E+04)
 number of electron    1258.0000000 magnetization 
 augmentation part     1258.0000000 magnetization 

 DIPCOR: dipole corrections for dipol
 direction  3 min pos    73,
 dipolmoment           0.000000      0.000000      2.410730 electrons x Angstroem
 Tr[quadrupol]    -94929.659667

 energy correction for charged system         0.000000 eV
 dipol+quadrupol energy correction           -0.047251 eV
 added-field ion interaction        312.614934 eV  (added to PSCEN)


 Free energy of the ion-electron system (eV)
  ---------------------------------------------------
  alpha Z        PSCENC =       802.73063519
  Ewald energy   TEWEN  =    308234.31743683
  -Hartree energ DENC   =   -370462.95018054
  -exchange      EXHF   =         0.00000000
  -V(xc)+E(xc)   XCENC  =      3776.84866731
  PAW double counting   =     59955.48764796   -58973.29898038
  entropy T*S    EENTRO =        -0.00000000
  eigenvalues    EBANDS =    -20059.44284577
  atomic energy  EATOM  =     74707.24229009
  Solvation  Ediel_sol  =         0.00000000
  ---------------------------------------------------
[...]
      4.15591      6.34186     10.89511         0.167166      0.266969     -0.098075
     20.28117     12.40201     17.13333        -0.005882     -0.001357     -0.018405
     20.26706     17.52644     12.55557        -0.046814      1.268568     -0.955753
      7.04790     13.78912     12.31057        -0.284369     -0.084335     -0.083874
      9.87046      4.73421     10.20483         0.406693      0.016300      0.510900
     18.98863      8.43576     13.98183         0.002139     -0.007741      0.004335
     23.02690      1.31929     14.01232        -0.003221     -0.009543      0.012689
     12.10086      8.25780     16.81445        -0.018262     -0.009219      0.014286
      0.80854     16.67059     11.54386        -0.108195      0.441549     -0.291363
     22.54593      5.49427      9.44299         0.185948     -0.186077      0.414352
      1.63005      6.09065     10.11814         0.295419     -0.132287     -0.028732
      4.87647     13.20394     10.62861         0.425580     -0.161122      0.426409
      0.91073      7.59465     13.41772         0.446793      0.035848      0.175016
      5.61497      5.16876     15.81001         0.008626     -0.012002     -0.001968
      9.30833      3.48170     17.30672        -0.030100      0.006079      0.005116
     10.65233     10.13395     15.68534        -0.005120      0.000552     -0.007728
     21.29740     13.57543     14.98696         0.007471      0.006193     -0.005369
     20.34739      1.95788     11.88993        -0.086444     -0.042600      0.433747
     13.40476     12.09288     10.11169        -0.261795      0.189112      0.095840
      3.33439      2.88355     10.10740        -0.029740     -0.058870      0.192463
      8.19047     13.88283     16.31169        -0.000174     -0.032421     -0.008888
     21.32760     15.31331     12.98949         0.323468     -1.479524      0.197479
      1.43600      9.72878     11.88926         0.549845      0.270927      0.058490
     16.58313     10.06030     11.28988        -0.120677     -0.554423     -0.038182
      1.76725     14.80155     12.98451        -0.021812     -6.366099      0.311560
     16.39879     14.99633     11.63069         1.816549     -3.818392     -0.210748
     17.09389      0.88941     14.59723         0.002068     -0.004664     -0.011071
     21.51372      5.47345     16.99237         0.009578     -0.005626      0.000505
     17.20468     15.45788     16.47372         0.012412     -0.008712      0.005917
     14.63491      9.55703     13.07550         1.898677     -1.233775     -1.183624
     13.03010     11.41100     12.56124        -3.578568     -2.694092      1.642874
      9.98157      4.41995     14.90304         0.003784      0.023441      0.000268
     22.90304     13.19668     12.81787         0.401949      0.304152      0.232502
     15.31230     10.76942     17.03039        -0.016276     -0.013791     -0.004508
      9.29559     13.52067     13.85901         0.008948      0.006878      0.015029
     14.10975      9.38074     10.36813         0.274009     -0.119138      0.368452
     16.84332     11.44202     14.97639        -0.000118      0.007084     -0.020586
      3.47162      6.61185     16.69614         0.005724      0.004608      0.003161
      1.54461      9.93850     14.56888         0.000848      0.003991     -0.002416
     19.17103     16.03133     14.42610        -0.000682     -0.003803      0.005377
     19.38960      6.44002     12.14868        -0.133495      0.251440      0.199545
     12.35275      5.40718     14.30810        -0.044157      0.012633      0.002207
     17.24798      9.04962     16.00650         0.002970     -0.001141     -0.005109
     13.05025      3.12466     10.61647        -1.380604     -1.823905      0.525508
     18.86866      4.64651     10.30420        -0.042162     -0.024792      0.757423
      5.55892     17.27408     13.65459        -0.685339      0.198044     -0.847871
     16.21608     14.06905     14.55238         0.007335      0.000972      0.000708
     21.62904     17.21131     14.86562        -0.005161     -0.006825     -0.005973
     12.30819      5.75859     10.71453        -7.875011      6.655215      3.189448
     11.00625     17.87992     14.69894         0.006994      0.006834      0.019621
     19.61221      1.71854     14.51120        -0.006750     -0.008739      0.000142
     12.59301      2.10963     13.07169        -2.068124      0.570940     -0.987230
      8.19848      3.38158     11.81891        -0.108275      0.161851      0.028411
      0.27532     17.44013      9.01248        -0.251071      0.115066      0.324597
     10.73728     10.65554     18.20835        -0.003448      0.021254      0.007522
     15.33358     16.76935     10.19493        -0.567155      0.124080      0.626032
      1.78613     12.43164     11.71795         0.022239     -0.126716      0.114718
     10.57584      7.30516     14.85509         0.003946     -0.026109     -0.008833
     16.83786     12.69249     10.20447        -0.051042      0.279379      0.488346
     10.49793     12.70519     16.17572         0.015351     -0.041277     -0.000876
     17.61819     12.85384     12.80443        -0.378555      0.244929     -1.080078
     18.22771      2.19518     16.68627        -0.010202      0.007180      0.010480
     23.25384      5.58159     12.05458         0.241646      0.005387     -0.022279
     12.46204      9.20160     14.23616        -0.017504     -0.008910      0.018539
     19.12182      9.04362     11.38355         0.338365     -0.392075      0.429170
      5.53469      2.61327     16.26664         0.006258      0.020545      0.005958
      4.76498     15.05334     12.64953         0.590593     -6.692619      0.302192
      5.61749     10.11879     14.05296        -0.001808      0.003274      0.012035
      1.43008     11.33208     16.76798         0.005540     -0.008768     -0.024787
      1.07865     10.91527      9.52151         0.187622      0.222167      0.438950
     18.74348     17.73691     16.28530         0.018097     -0.004368      0.002769
     12.59506      0.50191     10.87440        -0.225329      0.380285      0.163270
     14.19599      5.66337     16.26550         0.016421     -0.010336     -0.004079
     20.16991      0.07395      9.92551        -0.068634      0.005500      0.297875
      2.22200      2.70048     12.55675        -0.034284     -0.048624     -0.778955
      4.01460      3.69556     14.27441         0.003337      0.009955     -0.011957
     15.00637     12.76530     12.22697         2.645904      0.207904     -0.622469
     10.22577      7.42551     10.38809         0.256142     -0.707302      0.523163
     13.46031      1.04601     15.35499        -0.000852      0.016352      0.004972
      3.54535     10.75329     10.45651        -0.000187      0.704094      0.080305
      6.26814     10.91510     10.54651         0.152055      0.312925      0.038237
     10.30702      5.83863     12.64390         0.356437      0.009412     -0.815390
      5.57211      2.87242     11.55719         0.323841      0.285096     -0.360830
      1.70372      2.72369     15.12405        -0.017580     -0.001018      0.010903
     19.77734      9.86310     16.12575        -0.003591      0.000429      0.000958
     14.54261      5.07286     11.04652         1.381233      0.649463      0.834612
     14.10921     16.15557     12.56054        23.520860     14.645383     -4.499235
      0.73477      3.53889     10.45741         0.416242      0.155724      0.271106
     14.22577      3.53685     14.71849        -0.008027      0.041919      0.008301
      3.10901     17.00415     12.89023         0.019848     -0.150505     -0.335407
      1.87930      5.08114     13.75244         0.001048     -0.004718     -0.001846
      8.72599      1.83805     15.26745        -0.022528     -0.028112      0.018901
      1.55216     12.62941     14.40308        -0.005300      0.003646     -0.006350
     15.60336      7.52729     11.56016        -0.324655      0.198811      0.446922
     18.71358     13.22533     15.16341        -0.031934     -0.005675     -0.006320
     16.47777     17.34580     12.64014        -0.776439      0.359265     -0.211423
     13.98130     11.46301     14.87744         0.008727      0.008601      0.036849
     16.92263      5.32193     12.14236         0.249250      0.051646     -0.024870
     22.88638      5.69276     14.71114        -0.003647     -0.009910      0.012857
      3.70132     11.41028     15.33182        -0.003824     -0.000090     -0.005400
     14.82717      5.92171     13.65139         0.349168      0.178720     -0.694304
     19.18616      7.18297     16.27854         0.005089      0.002777     -0.006224
     22.44156      0.49368     11.20910        -0.296134     -0.372850     -0.327223
      6.60624      3.53276     13.94211        -0.005066      0.000748      0.001464
      5.83544      8.02830     12.39473        -0.015109     -0.755960     -0.700367
      6.33452     15.36449     15.27357         0.005304      0.033655     -0.006577
      4.76814     12.42343     13.08921         0.265477      0.525181     -0.347843
      3.44435      8.62698     13.24127        -0.338908      0.082312      0.206614
      5.26407      7.64777     14.95960         0.001842     -0.019971      0.031114
     21.33745      8.20429     12.73516        -0.255936     -0.143114     -0.133492
     20.36287     12.76750     12.47801         0.321135      0.275589      0.433234
     17.28035      1.68228     11.96927        -0.170440     -0.268783      0.478403
      5.20160     16.84879     10.96698        -0.329331      0.368225      0.363041
      5.96613      7.29020     17.42785        -0.006258     -0.000679      0.003268
     14.75663     16.00624     15.95223        -0.007759      0.007697     -0.003976
      9.60386     14.29879     11.38342        -0.517017     -0.406505      0.332087
     21.48622      3.55246     13.66334        -0.760939     -0.025055     -0.113337
      3.10310      8.03742      8.93261         0.096867     -0.240238      0.314681
      3.63221      5.50022      8.34891        -0.160676      0.545085      0.356456
      8.73253      2.37220      9.35416         0.190715      0.603451      0.344198
      0.81010      5.29149     17.02911        -0.003897      0.017049      0.011954
     13.40740      4.65477      8.60536        -0.205100      0.162095      0.215106
      5.71530     13.92880     17.46631        -0.003108     -0.021339     -0.001615
      4.85490     11.74990      8.34377         0.077114     -0.129394      0.503696
      6.44687      7.10699      9.87630         0.022246      0.045587      0.702329
      8.55334     10.82901      9.20005        -0.084758     -0.023494      0.746317
      5.29987      1.01807      9.62744        -0.071935      0.790474      0.115810
      5.64688      3.55318      8.85385        -0.375154     -0.058108      0.451882
     11.73545     16.16961     12.22768        -2.204924      1.024019     -0.700068
     12.88333     14.98809     14.36165        -0.005256      0.008003     -0.004326
     12.75506     11.71635     17.05566        -0.007425     -0.013624      0.005065
     11.20590      2.16528     16.02243         0.004527      0.001873     -0.002935
      6.15296     12.55358     15.28704         0.006763     -0.004801      0.003253
     10.39645     15.30079     15.67582        -0.010866      0.000092     -0.014974
     17.91635     11.18829     17.45841         0.001649     -0.011909      0.005120
     19.77572     15.07544     16.74639         0.009470     -0.006762      0.008295
     14.97301     13.40118     16.68578         0.005678     -0.002401     -0.009335
      0.19074      0.60647     16.21014        -0.001884     -0.001412      0.002082
      6.67449     18.11301     15.96870        -0.003121     -0.015745      0.006730
     11.81732     17.57783     16.92273         0.014240      0.030381     -0.012200
     10.47127      7.78130     19.42683        -0.024766      0.010011      0.024394
      1.94841     10.98909     10.92575        -0.069374     -0.149034      0.044491
      9.57243     13.84537     15.46426        -0.012735      0.015497      0.020936
     19.70678      7.99968     12.57709         0.116633     -0.152323     -0.283495
      0.40009     17.94876     10.58160         0.093961     -0.139795      0.317439
      0.34415      5.14988     10.51358         0.039193      0.035067      0.073612
      0.21620      2.08545     15.39126         0.007807      0.000881     -0.000083
     14.26429     11.91184     16.42282         0.003194     -0.000787     -0.017113
      5.00932      8.61851     13.70272         0.004722      0.010652     -0.010844
     21.42279     13.69170     13.34099         0.203118      0.234713     -0.633398
     12.18742      2.00159     11.45195         0.178649     -0.071524      0.479986
      9.80352      3.01712     15.81683         0.014829      0.007268     -0.009475
      1.95373      2.52197     10.94102         0.069205     -0.117567      0.070970
     16.43234      0.81267     13.10088         0.072007     -0.073860     -0.317390
     15.56990     16.27355     11.76084        -0.463946      4.553774     -0.211186
     15.21965      9.13359     11.56390         0.090808      0.035225      0.228195
      4.64622     16.53531     12.47363        -0.747114      6.162706     -0.372099
      5.04515      6.64014     16.22870        -0.012489      0.014604     -0.014126
     15.76693     14.74380     15.98238         0.002225      0.001647     -0.007806
      5.06990     11.61768     14.47337         0.003583      0.003027      0.004919
      8.63383     13.32142     12.34509        -0.285549     -0.029713      0.093425
     18.66684     16.10275     16.01232        -0.003440      0.011386     -0.016471
     20.59765     16.53162     13.76431        -0.006047      0.006637     -0.007315
     13.48306     10.40253     13.75469         0.033692      0.012312     -0.025612
     13.80890      2.08763     14.12181         0.004902     -0.015260     -0.008718
     20.08975      2.75648     13.31200        -0.181959     -0.011875     -0.426371
     19.55420     10.94402     17.36320         0.003610     -0.010553     -0.000300
      3.13099      6.52942      9.59393        -0.105337     -0.113473      0.055632
     18.51026      5.07285     11.87902        -0.277102      0.097488      0.086611
      9.34523      3.21643     10.64590        -0.145035     -0.303999      0.230012
     20.03847     13.59667     16.03619        -0.000326     -0.009275      0.002257
      6.61620     16.90172     14.77677         0.004457     -0.001966     -0.003577
      0.54021      5.98812     13.50205         0.313086      0.198981     -0.409549
     13.45118     12.60314     11.70944         3.920651     -0.856323     -2.470050
      5.39024     13.63805     12.15046         0.107332     -0.586857      0.021762
     13.90374      5.14280     14.74065         0.005646     -0.011213      0.000298
     22.83037      4.93482     16.20101        -0.002966      0.007619      0.004501
     20.81045      0.46044     11.40393         0.019058      0.043775      0.119691
      2.45117      3.54239     13.91923         0.006801      0.000729     -0.000348
      1.12715     13.28354     12.97472        -0.167856     -0.556190     -0.250990
      5.43282      3.72029     15.08235         0.011211     -0.000220      0.004264
     13.14328      4.67139     10.24864         8.354030     -5.354117     -3.576693
     11.16341     11.32980     16.75152         0.000989      0.027303      0.003710
      6.56944     13.94029     16.06888         0.011144     -0.002202      0.007040
      4.88127     11.65920      9.99509         0.065804     -0.069875      0.021274
     17.33250     12.88336     14.40493         0.001096     -0.007732     -0.005032
     23.09661     17.95187     14.79541         0.007499      0.006420      0.003090
     16.46059     13.35206     11.67438        -0.692595     -1.356826      0.350863
     18.44501      1.07816     15.50547         0.004797      0.012818     -0.002506
     10.68290      5.95195     11.00304        -1.151376      0.526254      0.457603
     10.56105     16.91619     16.00802        -0.026038     -0.027891     -0.010287
     11.93122      0.70209     15.76571         0.002842     -0.003999     -0.011674
      5.71814      6.71222     11.31648         0.020009     -0.118606     -0.105398
     15.41693      5.98005     12.10687        -0.148407     -0.473506     -0.811165
     10.77332      5.73577     14.21539         0.022782     -0.018169     -0.023730
      7.89661     10.69049     10.72869        -0.134387     -0.080991     -0.055298
     18.80216      8.63500     15.58520        -0.002352      0.017774      0.036477
      1.62029     16.28844     12.91761        -0.332166      6.444293     -0.541017
      4.96103      2.61769     10.04353        -0.078464     -0.039036      0.068424
      1.83153      8.95162     13.29887        -0.004049     -0.155361     -0.313975
     13.05344     15.44546     12.76235       -22.312551    -15.874032      4.707128
     16.81529     10.59813     16.38721        -0.004336      0.002794      0.003672
      6.71066      3.80730     12.34244        -0.217441     -0.002615     -0.780438
      2.05776     11.33336     15.25854        -0.007020     -0.003984      0.020277
      8.28978      0.28607     15.55265         0.003440     -0.000750     -0.013178
     11.40062      8.66720     15.36093         0.000426      0.009997     -0.034536
     11.46747      8.88007     18.55930         0.010173      0.022122      0.018708
 -----------------------------------------------------------------------------------
    total drift:                                0.368459      0.264676      0.206651


--------------------------------------------------------------------------------------------------------



  FREE ENERGIE OF THE ION-ELECTRON SYSTEM (eV)
  ---------------------------------------------------
  free  energy   TOTEN  =     -1886.34289101 eV

  energy  without entropy=    -1886.34289101  energy(sigma->0) =    -1886.34289101



--------------------------------------------------------------------------------------------------------


    POTLOK:  cpu time    0.5291: real time    0.5307


--------------------------------------------------------------------------------------------------------


 stress matrix after NEB project (eV)
    -32.61888      0.06105      0.26199
      0.06105    -33.58924     -0.50813
      0.26199     -0.50813    -25.33574
  FORCES: max atom, RMS     0.045982    0.014098
  FORCE total and by dimension    0.234221    0.044157
  Stress total and by dimension   53.242738   33.589236


--------------------------------------------------------------------------------------------------------


  
 reached required accuracy - stopping structural energy minimisation
     LOOP+:  cpu time  757.6093: real time  760.8207
    4ORBIT:  cpu time    0.0000: real time    0.0000

 total amount of memory used by VASP MPI-rank0   389770. kBytes
=======================================================================

   base      :      30000. kBytes
   nonlr-proj:      16961. kBytes
   fftplans  :      22890. kBytes
   grid      :      38557. kBytes
   one-center:       1073. kBytes
   wavefun   :     280289. kBytes

  
  
 General timing and accounting informations for this job:
 ========================================================
  
                  Total CPU time used (sec):      840.325
                            User time (sec):      837.674
                          System time (sec):        2.651
                         Elapsed time (sec):      847.259
  
                   Maximum memory used (kb):      696484.
                   Average memory used (kb):           0.
  
                          Minor page faults:      1029225
                          Major page faults:          197
                 Voluntary context switches:        17077
