 vasp.5.4.4.18Apr17-6-g9f103f2a35 (build Oct 20 2021 08:33:53) complex           
 executed on             LinuxGNU date 2025.03.11  14:14:14
 running on   64 total cores
 each image running on    8 cores
 distrk:  each k-point on    8 cores,    1 groups
 distr:  one band on NCORES_PER_BAND=   4 cores,    2 groups


--------------------------------------------------------------------------------------------------------


 INCAR:
 POTCAR:    PAW_PBE C 08Apr2002                   
 POTCAR:    PAW_PBE H 15Jun2001                   
 POTCAR:    PAW_PBE O 08Apr2002                   
 POTCAR:    PAW_PBE Si 05Jan2001                  
 POTCAR:    PAW_PBE W 08Apr2002                   
 POTCAR:    PAW_PBE C 08Apr2002                   
   VRHFIN =C: s2p2                                                              
   LEXCH  = PE                                                                  
   EATOM  =   147.1560 eV,   10.8157 Ry                                         
                                                                                
   TITEL  = PAW_PBE C 08Apr2002                                                 
   LULTRA =        F    use ultrasoft PP ?                                      
   IUNSCR =        1    unscreen: 0-lin 1-nonlin 2-no                           
   RPACOR =    1.200    partial core radius                                     
   POMASS =   12.011; ZVAL   =    4.000    mass and valenz                      
   RCORE  =    1.500    outmost cutoff radius                                   
   RWIGS  =    1.630; RWIGS  =    0.863    wigner-seitz radius (au A)           
   ENMAX  =  400.000; ENMIN  =  300.000 eV                                      
   ICORE  =        2    local potential                                         
   LCOR   =        T    correct aug charges                                     
   LPAW   =        T    paw PP                                                  
   EAUG   =  644.873                                                            
   DEXC   =    0.000                                                            
   RMAX   =    1.529    core radius for proj-oper                               
   RAUG   =    1.300    factor for augmentation sphere                          
   RDEP   =    1.501    radius for radial grids                                 
   RDEPT  =    1.300    core radius for aug-charge                              
                                                                                
   Atomic configuration                                                         
    4 entries                                                                   
     n  l   j            E        occ.                                          
     1  0  0.50      -273.3789   2.0000                                         
     2  0  0.50       -13.7508   2.0000                                         
     2  1  0.50        -5.2854   2.0000                                         
     3  2  1.50        -5.4423   0.0000                                         
   Description                                                                  
     l       E           TYP  RCUT    TYP  RCUT                                 
     0    -13.7508458     23  1.200                                             
     0     -8.2022199     23  1.200                                             
     1     -5.2854383     23  1.500                                             
     1     34.0145650     23  1.500                                             
     2     -5.4423304      7  1.500                                             
  local pseudopotential read in
  partial core-charges read in
  partial kinetic energy density read in
  atomic valenz-charges read in
  non local Contribution for L=           0  read in
    real space projection operators read in
  non local Contribution for L=           0  read in
    real space projection operators read in
  non local Contribution for L=           1  read in
    real space projection operators read in
  non local Contribution for L=           1  read in
    real space projection operators read in
    PAW grid and wavefunctions read in

   number of l-projection  operators is LMAX  =           4
   number of lm-projection operators is LMMAX =           8

 POTCAR:    PAW_PBE H 15Jun2001                   
   VRHFIN =H: ultrasoft test                                                    
   LEXCH  = PE                                                                  
   EATOM  =    12.4884 eV,    0.9179 Ry                                         
                                                                                
   TITEL  = PAW_PBE H 15Jun2001                                                 
   LULTRA =        F    use ultrasoft PP ?                                      
   IUNSCR =        0    unscreen: 0-lin 1-nonlin 2-no                           
   RPACOR =    0.000    partial core radius                                     
   POMASS =    1.000; ZVAL   =    1.000    mass and valenz                      
   RCORE  =    1.100    outmost cutoff radius                                   
   RWIGS  =    0.700; RWIGS  =    0.370    wigner-seitz radius (au A)           
   ENMAX  =  250.000; ENMIN  =  200.000 eV                                      
   RCLOC  =    0.701    cutoff for local pot                                    
   LCOR   =        T    correct aug charges                                     
   LPAW   =        T    paw PP                                                  
   EAUG   =  400.000                                                            
   RMAX   =    1.123    core radius for proj-oper                               
   RAUG   =    1.200    factor for augmentation sphere                          
   RDEP   =    1.112    radius for radial grids                                 
   RDEPT  =    0.926    core radius for aug-charge                              
                                                                                
   Atomic configuration                                                         
    2 entries                                                                   
     n  l   j            E        occ.                                          
     1  0  0.50        -6.4927   1.0000                                         
     2  1  0.50        -3.4015   0.0000                                         
   Description                                                                  
     l       E           TYP  RCUT    TYP  RCUT                                 
     0     -6.4927494     23  1.100                                             
     0      6.8029130     23  1.100                                             
     1     -4.0817478     23  1.100                                             
  local pseudopotential read in
  atomic valenz-charges read in
  non local Contribution for L=           0  read in
    real space projection operators read in
  non local Contribution for L=           0  read in
    real space projection operators read in
  non local Contribution for L=           1  read in
    real space projection operators read in
    PAW grid and wavefunctions read in

   number of l-projection  operators is LMAX  =           3
   number of lm-projection operators is LMMAX =           5

 POTCAR:    PAW_PBE O 08Apr2002                   
   VRHFIN =O: s2p4                                                              
   LEXCH  = PE                                                                  
   EATOM  =   432.3788 eV,   31.7789 Ry                                         
                                                                                
   TITEL  = PAW_PBE O 08Apr2002                                                 
   LULTRA =        F    use ultrasoft PP ?                                      
   IUNSCR =        1    unscreen: 0-lin 1-nonlin 2-no                           
   RPACOR =    1.200    partial core radius                                     
   POMASS =   16.000; ZVAL   =    6.000    mass and valenz                      
   RCORE  =    1.520    outmost cutoff radius                                   
   RWIGS  =    1.550; RWIGS  =    0.820    wigner-seitz radius (au A)           
   ENMAX  =  400.000; ENMIN  =  300.000 eV                                      
   ICORE  =        2    local potential                                         
   LCOR   =        T    correct aug charges                                     
   LPAW   =        T    paw PP                                                  
   EAUG   =  605.392                                                            
   DEXC   =    0.000                                                            
   RMAX   =    1.553    core radius for proj-oper                               
   RAUG   =    1.300    factor for augmentation sphere                          
   RDEP   =    1.550    radius for radial grids                                 
   RDEPT  =    1.329    core radius for aug-charge                              
                                                                                
   Atomic configuration                                                         
    4 entries                                                                   
     n  l   j            E        occ.                                          
     1  0  0.50      -514.6923   2.0000                                         
     2  0  0.50       -23.9615   2.0000                                         
     2  1  0.50        -9.0305   4.0000                                         
     3  2  1.50        -9.5241   0.0000                                         
   Description                                                                  
     l       E           TYP  RCUT    TYP  RCUT                                 
     0    -23.9615318     23  1.200                                             
     0     -9.5240782     23  1.200                                             
     1     -9.0304911     23  1.520                                             
     1      8.1634956     23  1.520                                             
     2     -9.5240782      7  1.500                                             
  local pseudopotential read in
  partial core-charges read in
  partial kinetic energy density read in
  kinetic energy density of atom read in
  atomic valenz-charges read in
  non local Contribution for L=           0  read in
    real space projection operators read in
  non local Contribution for L=           0  read in
    real space projection operators read in
  non local Contribution for L=           1  read in
    real space projection operators read in
  non local Contribution for L=           1  read in
    real space projection operators read in
    PAW grid and wavefunctions read in

   number of l-projection  operators is LMAX  =           4
   number of lm-projection operators is LMMAX =           8

 POTCAR:    PAW_PBE Si 05Jan2001                  
   VRHFIN =Si: s2p2                                                             
   LEXCH  = PE                                                                  
   EATOM  =   103.0669 eV,    7.5752 Ry                                         
                                                                                
   TITEL  = PAW_PBE Si 05Jan2001                                                
   LULTRA =        F    use ultrasoft PP ?                                      
   IUNSCR =        1    unscreen: 0-lin 1-nonlin 2-no                           
   RPACOR =    1.500    partial core radius                                     
   POMASS =   28.085; ZVAL   =    4.000    mass and valenz                      
   RCORE  =    1.900    outmost cutoff radius                                   
   RWIGS  =    2.480; RWIGS  =    1.312    wigner-seitz radius (au A)           
   ENMAX  =  245.345; ENMIN  =  184.009 eV                                      
   ICORE  =        2    local potential                                         
   LCOR   =        T    correct aug charges                                     
   LPAW   =        T    paw PP                                                  
   EAUG   =  322.069                                                            
   DEXC   =    0.000                                                            
   RMAX   =    1.950    core radius for proj-oper                               
   RAUG   =    1.300    factor for augmentation sphere                          
   RDEP   =    1.993    radius for radial grids                                 
   RDEPT  =    1.837    core radius for aug-charge                              
                                                                                
   Atomic configuration                                                         
    6 entries                                                                   
     n  l   j            E        occ.                                          
     1  0  0.50     -1785.8828   2.0000                                         
     2  0  0.50      -139.4969   2.0000                                         
     2  1  1.50       -95.5546   6.0000                                         
     3  0  0.50       -10.8127   2.0000                                         
     3  1  0.50        -4.0811   2.0000                                         
     3  2  1.50        -4.0817   0.0000                                         
   Description                                                                  
     l       E           TYP  RCUT    TYP  RCUT                                 
     0    -10.8127223     23  1.900                                             
     0     -7.6451159     23  1.900                                             
     1     -4.0811372     23  1.900                                             
     1      2.4879257     23  1.900                                             
     2     -4.0817478      7  1.900                                             
  local pseudopotential read in
  partial core-charges read in
  partial kinetic energy density read in
  atomic valenz-charges read in
  non local Contribution for L=           0  read in
    real space projection operators read in
  non local Contribution for L=           0  read in
    real space projection operators read in
  non local Contribution for L=           1  read in
    real space projection operators read in
  non local Contribution for L=           1  read in
    real space projection operators read in
    PAW grid and wavefunctions read in

   number of l-projection  operators is LMAX  =           4
   number of lm-projection operators is LMMAX =           8

 POTCAR:    PAW_PBE W 08Apr2002                   
   VRHFIN =W : 6s5d                                                             
   LEXCH  = PE                                                                  
   EATOM  =   204.6103 eV,   15.0384 Ry                                         
                                                                                
   TITEL  = PAW_PBE W 08Apr2002                                                 
   LULTRA =        F    use ultrasoft PP ?                                      
   IUNSCR =        1    unscreen: 0-lin 1-nonlin 2-no                           
   RPACOR =    2.330    partial core radius                                     
   POMASS =  183.850; ZVAL   =    6.000    mass and valenz                      
   RCORE  =    2.750    outmost cutoff radius                                   
   RWIGS  =    2.750; RWIGS  =    1.455    wigner-seitz radius (au A)           
   ENMAX  =  223.057; ENMIN  =  167.293 eV                                      
   RCLOC  =    2.147    cutoff for local pot                                    
   LCOR   =        T    correct aug charges                                     
   LPAW   =        T    paw PP                                                  
   EAUG   =  373.438                                                            
   DEXC   =    0.000                                                            
   RMAX   =    2.801    core radius for proj-oper                               
   RAUG   =    1.300    factor for augmentation sphere                          
   RDEP   =    2.886    radius for radial grids                                 
   RDEPT  =    2.230    core radius for aug-charge                              
                                                                                
   Atomic configuration                                                         
   16 entries                                                                   
     n  l   j            E        occ.                                          
     1  0  0.50    -69465.5836   2.0000                                         
     2  0  0.50    -11986.2642   2.0000                                         
     2  1  1.50    -10479.8616   6.0000                                         
     3  0  0.50     -2759.0758   2.0000                                         
     3  1  1.50     -2313.1857   6.0000                                         
     3  2  2.50     -1801.1185  10.0000                                         
     4  0  0.50      -567.6791   2.0000                                         
     4  1  1.50      -421.4694   6.0000                                         
     4  2  2.50      -236.3473  10.0000                                         
     4  3  3.50       -31.2666  14.0000                                         
     5  0  0.50       -77.1085   2.0000                                         
     5  1  1.50       -41.3856   6.0000                                         
     5  2  2.50        -3.3185   5.0000                                         
     6  0  0.50        -5.1438   1.0000                                         
     6  1  0.50        -3.8096   0.0000                                         
     5  3  2.50        -1.3606   0.0000                                         
   Description                                                                  
     l       E           TYP  RCUT    TYP  RCUT                                 
     2     -3.3185288     23  2.500                                             
     2     -1.5965414     23  2.500                                             
     0     -5.1438054     23  2.500                                             
     0      4.9117504     23  2.500                                             
     1      2.7211652     23  2.750                                             
     1     27.2116520     23  2.750                                             
  local pseudopotential read in
  partial core-charges read in
  partial kinetic energy density read in
  atomic valenz-charges read in
  non local Contribution for L=           2  read in
    real space projection operators read in
  non local Contribution for L=           2  read in
    real space projection operators read in
  non local Contribution for L=           0  read in
    real space projection operators read in
  non local Contribution for L=           0  read in
    real space projection operators read in
  non local Contribution for L=           1  read in
    real space projection operators read in
  non local Contribution for L=           1  read in
    real space projection operators read in
    PAW grid and wavefunctions read in

   number of l-projection  operators is LMAX  =           6
   number of lm-projection operators is LMMAX =          18

 Optimization of the real space projectors (new method)

 maximal supplied QI-value         = 25.13
 optimisation between [QCUT,QGAM] = [ 11.31, 22.87] = [ 35.82,146.48] Ry 
 Optimized for a Real-space Cutoff    1.00 Angstroem

   l    n(q)    QCUT    max X(q) W(low)/X(q) W(high)/X(q)  e(spline) 
   0      7    11.310   115.676    0.43E-03    0.13E-02    0.19E-06
   0      7    11.310    87.132    0.43E-03    0.13E-02    0.18E-06
   1      6    11.310     4.429    0.42E-03    0.74E-03    0.11E-06
   1      6    11.310     2.733    0.34E-03    0.55E-03    0.92E-07
 Optimization of the real space projectors (new method)

 maximal supplied QI-value         = 34.20
 optimisation between [QCUT,QGAM] = [ 11.29, 22.57] = [ 35.68,142.71] Ry 
 Optimized for a Real-space Cutoff    1.16 Angstroem

   l    n(q)    QCUT    max X(q) W(low)/X(q) W(high)/X(q)  e(spline) 
   0      8    11.287    19.460    0.40E-03    0.73E-03    0.16E-06
   0      8    11.287    12.209    0.38E-03    0.70E-03    0.15E-06
   1      7    11.287     4.655    0.22E-03    0.25E-04    0.22E-06
 Optimization of the real space projectors (new method)

 maximal supplied QI-value         = 24.76
 optimisation between [QCUT,QGAM] = [ 11.39, 22.77] = [ 36.31,145.25] Ry 
 Optimized for a Real-space Cutoff    1.00 Angstroem

   l    n(q)    QCUT    max X(q) W(low)/X(q) W(high)/X(q)  e(spline) 
   0      7    11.387    20.381    0.39E-03    0.13E-02    0.15E-06
   0      7    11.387    15.268    0.42E-03    0.14E-02    0.17E-06
   1      6    11.387     5.964    0.41E-03    0.11E-02    0.17E-06
   1      6    11.387     5.382    0.39E-03    0.87E-03    0.15E-06
 Optimization of the real space projectors (new method)

 maximal supplied QI-value         = 19.84
 optimisation between [QCUT,QGAM] = [ 11.31, 22.82] = [ 35.82,145.81] Ry 
 Optimized for a Real-space Cutoff    1.16 Angstroem

   l    n(q)    QCUT    max X(q) W(low)/X(q) W(high)/X(q)  e(spline) 
   0      8    11.310   159.560    0.27E-03    0.30E-03    0.39E-07
   0      8    11.310   115.863    0.27E-03    0.30E-03    0.38E-07
   1      7    11.310    88.339    0.28E-03    0.28E-03    0.77E-07
   1      7    11.310    48.592    0.27E-03    0.27E-03    0.74E-07
 Optimization of the real space projectors (new method)

 maximal supplied QI-value         = 13.61
 optimisation between [QCUT,QGAM] = [ 11.43, 22.86] = [ 36.58,146.31] Ry 
 Optimized for a Real-space Cutoff    1.56 Angstroem

   l    n(q)    QCUT    max X(q) W(low)/X(q) W(high)/X(q)  e(spline) 
   2     10    11.429   130.855    0.22E-03    0.64E-03    0.11E-05
   2     10    11.429   114.007    0.22E-03    0.64E-03    0.11E-05
   0     11    11.429    84.709    0.39E-04    0.67E-04    0.23E-06
   0     11    11.429    49.163    0.35E-04    0.62E-04    0.21E-06
   1     10    11.429    15.765    0.84E-04    0.15E-03    0.24E-06
   1     10    11.429    10.638    0.58E-04    0.12E-03    0.19E-06

 ----------------------------------------------------------------------------- 
|                                                                             |
|  ADVICE TO THIS USER RUNNING 'VASP/VAMP'   (HEAR YOUR MASTER'S VOICE ...):  |
|                                                                             |
|      You enforced a specific xc-type in the INCAR file,                     |
|      a different type was found on the POTCAR file                          |
|          I HOPE YOU KNOW, WHAT YOU ARE  DOING                               |
|                                                                             |
 ----------------------------------------------------------------------------- 

  PAW_PBE C 08Apr2002                   :
 energy of atom  1       EATOM= -147.1560
 kinetic energy error for atom=    0.0076 (will be added to EATOM!!)
  PAW_PBE H 15Jun2001                   :
 energy of atom  2       EATOM=  -12.4884
 kinetic energy error for atom=    0.0020 (will be added to EATOM!!)
  PAW_PBE O 08Apr2002                   :
 energy of atom  3       EATOM= -432.3788
 kinetic energy error for atom=    0.0224 (will be added to EATOM!!)
  PAW_PBE Si 05Jan2001                  :
 energy of atom  4       EATOM= -103.0669
 kinetic energy error for atom=    0.0006 (will be added to EATOM!!)
  PAW_PBE W 08Apr2002                   :
 energy of atom  5       EATOM= -204.6103
 kinetic energy error for atom=    0.0017 (will be added to EATOM!!)


 POSCAR:  C  H  O Si  W                          
  positions in direct lattice
  velocities in cartesian coordinates
 exchange correlation table for  LEXCH =        9
   RHO(1)=    0.500       N(1)  =     2000
   RHO(2)=  100.500       N(2)  =     4000

 VTST: version 3.2, (02/03/18)

 CHAIN: initializing optimizer
 
 OPT: Using LBFGS optimizer
 OPT: LBFGS, Init
 OPT: LBFGS, MEMORY             20
 OPT: LBFGS, IMAGES              8
 OPT: LBFGS, MAXMOVE      0.200000
 OPT: LBFGS, LGLOBAL      T
 OPT: LBFGS, INVCURV      0.010000
 OPT: LBFGS, LLINEOPT      F
 OPT: LBFGS, FDSTEP       0.005000
 OPT: LBFGS, LAUTOSCALE      T
 OPT: LBFGS, DAMPING      2.000000
 
 CHAIN: Read ICHAIN            0
 CHAIN: Running the NEB
 NEB:          SPRING     -5.000000
 NEB:          LCLIMB      T
 NEB:     LTANGENTOLD      F
 NEB:           LDNEB      F
 NEB:        LDNEBORG      F
 NEB:        LNEBCELL      F
 NEB:          EFIRST      0.000000
 NEB:           ELAST      0.000000

 POSCAR:  C  H  O Si  W                          
  positions in cartesian coordinates
  No initial velocities read in

 POSCAR:  C  H  O Si  W                          
  positions in cartesian coordinates
  No initial velocities read in



--------------------------------------------------------------------------------------------------------


 ion  position               nearest neighbor table
   1  0.608  0.396  0.703-  49 1.09  50 1.09   4 1.35
   2  0.544  0.582  0.796-  52 1.10  51 1.10  53 1.11   3 1.51
   3  0.544  0.571  0.741-  54 1.10   2 1.51 276 1.91
   4  0.607  0.434  0.746-  55 1.09  56 1.09   1 1.35
   5  0.761  0.103  0.651- 131 0.97
   6  0.926  0.279  0.356-  79 0.98
   7  0.793  0.207  0.373- 114 0.97
   8  0.975  0.944  0.325- 123 0.97
   9  0.626  0.963  0.375- 125 0.98
  10  0.821  0.995  0.369- 143 0.97
  11  0.750  0.141  0.458- 181 0.98
  12  0.915  0.249  0.509- 186 0.97
  13  0.583  0.304  0.306- 191 0.97
  14  0.892  0.334  0.616-  97 0.98
  15  0.588  0.361  0.610- 142 0.97
  16  0.593  0.871  0.578- 184 0.99
  17  0.034  0.338  0.652- 190 0.97
  18  0.935  0.420  0.454- 179 0.98
  19  0.746  0.530  0.422-  93 1.00
  20  0.800  0.384  0.637- 171 0.97
  21  0.591  0.569  0.378- 105 0.99
  22  0.718  0.646  0.383- 128 0.99
  23  0.841  0.542  0.420- 134 0.98
  24  0.005  0.604  0.358- 139 0.97
  25  0.828  0.712  0.468- 180 0.99
  26  0.881  0.598  0.719-  59 0.97
  27  0.520  0.986  0.422- 141 0.99
  28  0.223  0.980  0.393- 182 1.00
  29  0.216  0.238  0.319- 197 0.99
  30  0.158  0.330  0.279- 188 0.97
  31  0.342  0.156  0.331- 189 0.98
  32  0.223  0.046  0.323- 196 0.97
  33  0.511  0.826  0.547- 199 0.97
  34  0.370  0.235  0.648-  84 0.97
  35  0.243  0.093  0.599- 135 0.98
  36  0.315  0.487  0.442-  58 0.99
  37  0.409  0.439  0.406- 147 0.98
  38  0.398  0.793  0.389- 185 0.97
  39  0.244  0.655  0.294- 193 0.97
  40  0.312  0.418  0.369- 194 0.98
  41  0.405  0.584  0.339- 195 0.97
  42  0.139  0.488  0.352- 187 0.98
  43  0.593  0.698  0.352-  88 0.97
  44  0.469  0.861  0.444- 198 0.99
  45  0.123  0.324  0.613- 107 0.97
  46  0.075  0.663  0.646- 138 0.97
  47  0.244  0.389  0.682- 183 0.97
  48  0.246  0.815  0.670- 192 0.97
  49  0.584  0.345  0.698-   1 1.09
  50  0.635  0.414  0.672-   1 1.09
  51  0.587  0.571  0.813-   2 1.10
  52  0.513  0.546  0.815-   2 1.10
  53  0.533  0.639  0.805-   2 1.11
  54  0.577  0.603  0.721-   3 1.10
  55  0.633  0.484  0.750-   4 1.09
  56  0.581  0.417  0.778-   4 1.09
  57  0.369  0.648  0.439- 230 1.66 265 1.68
  58  0.347  0.504  0.420-  36 0.99 265 1.67
  59  0.859  0.567  0.697-  26 0.97 236 1.64
  60  0.348  0.959  0.531- 241 1.68 274 1.70
  61  0.033  0.933  0.528- 256 1.63 267 1.66
  62  0.636  0.079  0.489- 234 1.59 223 1.65
  63  0.069  0.052  0.395- 222 1.64 214 1.65
  64  0.452  0.130  0.421- 239 1.65 220 1.65
  65  0.806  0.214  0.483- 238 1.67 235 1.69
  66  0.973  0.182  0.599- 216 1.63 246 1.65
  67  0.275  0.299  0.449- 262 1.65 272 1.66
  68  0.556  0.775  0.442- 243 1.51 270 1.66
  69  0.391  0.974  0.620- 260 1.65 274 1.66
  70  0.178  0.350  0.405- 262 1.66 237 1.67
  71  0.866  0.684  0.637- 240 1.64 236 1.65
  72  0.866  0.967  0.467- 232 1.60 247 1.65
  73  0.301  0.761  0.458- 230 1.65 244 1.67
  74  0.422  0.261  0.380- 239 1.67 259 1.67
  75  0.811  0.465  0.520- 266 1.63 213 1.64
  76  0.983  0.073  0.521- 256 1.68 216 1.69
  77  0.515  0.471  0.631- 275 1.66 276 2.02
  78  0.035  0.920  0.429- 267 1.64 214 1.65
  79  0.963  0.303  0.351-   6 0.98 215 1.65
  80  0.070  0.336  0.376- 215 1.64 237 1.65
  81  0.208  0.729  0.395- 244 1.66 254 1.67
  82  0.039  0.419  0.499- 269 1.64 242 1.65
  83  0.240  0.286  0.588- 250 1.63 227 1.63
  84  0.398  0.195  0.645-  34 0.97 221 1.64
  85  0.454  0.563  0.578- 252 1.68 275 1.68
  86  0.910  0.749  0.557- 240 1.64 219 1.66
  87  0.869  0.108  0.442- 247 1.64 235 1.65
  88  0.573  0.667  0.376-  43 0.97 243 1.68
  89  0.142  0.159  0.376- 268 1.65 222 1.65
  90  0.350  0.766  0.607- 212 1.62 253 1.64
  91  0.911  0.845  0.483- 232 1.62 219 1.66
  92  0.061  0.537  0.442- 269 1.66 211 1.67
  93  0.708  0.555  0.420-  19 1.00 225 1.67
  94  0.075  0.817  0.483- 267 1.50 249 1.65
  95  0.700  0.828  0.433- 224 1.53 257 1.65
  96  0.730  0.049  0.543- 223 1.64 258 1.64
  97  0.919  0.303  0.632-  14 0.98 246 1.63
  98  0.735  0.852  0.613- 231 1.67 228 1.68
  99  0.625  0.527  0.486- 233 1.58 225 1.68
 100  0.557  0.630  0.467- 243 1.52 233 1.63
 101  0.426  0.248  0.556- 221 1.68 264 1.68
 102  0.978  0.728  0.477- 249 1.65 219 1.65
 103  0.653  0.594  0.633- 271 1.65 217 1.67
 104  0.396  0.748  0.515- 230 1.65 212 1.65
 105  0.603  0.518  0.386-  21 0.99 225 1.65
 106  0.720  0.630  0.557- 255 1.63 271 1.64
 107  0.148  0.365  0.621-  45 0.97 227 1.64
 108  0.066  0.549  0.542- 269 1.63 273 1.64
 109  0.819  0.885  0.537- 232 1.65 231 1.67
 110  0.828  0.355  0.452- 238 1.65 213 1.65
 111  0.528  0.292  0.528- 264 1.62 245 1.63
 112  0.736  0.499  0.596- 271 1.66 266 1.67
 113  0.557  0.172  0.395- 251 1.59 220 1.64
 114  0.806  0.256  0.383-   7 0.97 238 1.67
 115  0.237  0.953  0.508- 241 1.58 226 1.67
 116  0.692  0.774  0.542- 255 1.63 228 1.64
 117  0.924  0.950  0.553- 256 1.65 232 1.65
 118  0.526  0.318  0.399- 251 1.45 259 1.66
 119  0.467  0.992  0.546- 260 1.69 261 1.70
 120  0.837  0.095  0.540- 235 1.66 258 1.66
 121  0.538  0.116  0.486- 234 1.61 220 1.67
 122  0.350  0.187  0.440- 272 1.63 239 1.65
 123  0.012  0.962  0.335-   8 0.97 214 1.65
 124  0.449  0.592  0.672- 252 1.64 276 1.97
 125  0.655  0.925  0.379-   9 0.98 224 1.66
 126  0.076  0.686  0.436- 211 1.65 249 1.66
 127  0.458  0.403  0.555- 275 1.69 264 1.70
 128  0.719  0.700  0.380-  22 0.99 257 1.65
 129  0.451  0.706  0.599- 212 1.62 252 1.63
 130  0.753  0.709  0.476- 255 1.63 257 1.69
 131  0.779  0.121  0.621-   5 0.97 258 1.64
 132  0.993  0.308  0.448- 242 1.66 215 1.68
 133  0.537  0.508  0.533- 275 1.64 233 1.64
 134  0.817  0.499  0.423-  23 0.98 213 1.69
 135  0.236  0.145  0.605-  35 0.98 250 1.62
 136  0.204  0.831  0.471- 226 1.50 244 1.63
 137  0.240  0.559  0.523- 229 1.65 218 1.66
 138  0.061  0.625  0.624-  46 0.97 273 1.64
 139  0.046  0.602  0.354-  24 0.97 211 1.65
 140  0.800  0.978  0.606- 231 1.66 258 1.69
 141  0.538  0.028  0.405-  27 0.99 220 1.66
 142  0.602  0.312  0.604-  15 0.97 245 1.64
 143  0.862  0.004  0.369-  10 0.97 247 1.66
 144  0.095  0.149  0.467- 248 1.62 222 1.65
 145  0.171  0.204  0.531- 248 1.61 250 1.63
 146  0.641  0.704  0.455- 243 1.65 257 1.66
 147  0.437  0.410  0.386-  37 0.98 259 1.66
 148  0.574  0.059  0.571- 261 1.62 234 1.65
 149  0.151  0.593  0.389- 254 1.68 211 1.68
 150  0.268  0.602  0.392- 265 1.65 254 1.67
 151  0.440  0.322  0.470- 264 1.65 259 1.69
 152  0.238  0.159  0.430- 268 1.65 272 1.67
 153  0.073  0.150  0.563- 248 1.64 216 1.64
 154  0.844  0.545  0.600- 266 1.66 236 1.66
 155  0.621  0.280  0.411- 263 1.65 251 1.66
 156  0.603  0.892  0.467- 270 1.29 224 1.67
 157  0.031  0.195  0.389- 215 1.66 222 1.66
 158  0.609  0.194  0.547- 234 1.62 245 1.63
 159  0.133  0.938  0.479- 267 1.65 226 1.66
 160  0.080  0.280  0.512- 242 1.64 248 1.65
 161  0.372  0.106  0.568- 274 1.63 221 1.69
 162  0.066  0.697  0.536- 249 1.63 273 1.63
 163  0.666  0.415  0.430- 225 1.65 263 1.65
 164  0.799  0.730  0.564- 255 1.61 240 1.63
 165  0.704  0.957  0.470- 223 1.65 224 1.66
 166  0.599  0.636  0.553- 233 1.63 217 1.63
 167  0.723  0.294  0.452- 238 1.63 263 1.64
 168  0.978  0.314  0.547- 242 1.64 246 1.67
 169  0.158  0.630  0.571- 229 1.63 273 1.65
 170  0.633  0.327  0.508- 245 1.62 263 1.65
 171  0.819  0.396  0.606-  20 0.97 266 1.65
 172  0.959  0.027  0.417- 247 1.64 214 1.65
 173  0.282  0.195  0.519- 272 1.63 250 1.65
 174  0.249  0.443  0.461- 218 1.66 262 1.71
 175  0.272  0.851  0.569- 241 1.64 253 1.65
 176  0.204  0.686  0.487- 229 1.63 244 1.66
 177  0.147  0.476  0.493- 218 1.63 269 1.65
 178  0.225  0.422  0.556- 218 1.61 227 1.63
 179  0.911  0.453  0.474-  18 0.98 213 1.65
 180  0.870  0.705  0.464-  25 0.99 219 1.65
 181  0.738  0.093  0.445-  11 0.98 223 1.66
 182  0.222  0.930  0.408-  28 1.00 226 1.64
 183  0.255  0.402  0.648-  47 0.97 227 1.65
 184  0.630  0.883  0.593-  16 0.99 228 1.62
 185  0.410  0.789  0.423-  38 0.97 230 1.68
 186  0.918  0.196  0.508-  12 0.97 235 1.65
 187  0.133  0.444  0.332-  42 0.98 237 1.65
 188  0.155  0.304  0.311-  30 0.97 237 1.69
 189  0.373  0.131  0.348-  31 0.98 239 1.66
 190  0.035  0.292  0.633-  17 0.97 246 1.66
 191  0.573  0.257  0.320-  13 0.97 251 1.66
 192  0.245  0.771  0.650-  48 0.97 253 1.64
 193  0.207  0.648  0.310-  39 0.97 254 1.65
 194  0.275  0.392  0.367-  40 0.98 262 1.66
 195  0.365  0.598  0.342-  41 0.97 265 1.67
 196  0.226  0.056  0.358-  32 0.97 268 1.69
 197  0.241  0.196  0.329-  29 0.99 268 1.66
 198  0.501  0.892  0.455-  44 0.99 270 1.60
 199  0.550  0.828  0.534-  33 0.97 270 1.67
 200  0.543  0.644  0.633- 217 1.65 252 1.69
 201  0.478  0.123  0.597- 261 1.65 221 1.65
 202  0.262  0.695  0.569- 253 1.65 229 1.65
 203  0.442  0.849  0.581- 260 1.65 212 1.68
 204  0.765  0.617  0.650- 271 1.65 236 1.66
 205  0.845  0.832  0.623- 240 1.66 231 1.68
 206  0.638  0.739  0.622- 217 1.67 228 1.71
 207  0.008  0.033  0.603- 216 1.69 256 1.69
 208  0.284  0.004  0.593- 274 1.70 241 1.70
 209  0.503  0.972  0.628- 260 1.69 261 1.70
 210  0.454  0.468  0.742- 276 1.72
 211  0.083  0.606  0.406- 139 1.65 126 1.65  92 1.67 149 1.68 269 3.13
 212  0.409  0.767  0.574-  90 1.62 129 1.62 104 1.65 203 1.68 253 3.06
 213  0.842  0.441  0.468-  75 1.64 110 1.65 179 1.65 134 1.69
 214  0.017  0.990  0.394-  63 1.65 172 1.65  78 1.65 123 1.65 267 3.11 222 3.13
 215  0.015  0.284  0.391-  80 1.64  79 1.65 157 1.66 132 1.68 242 3.11 222 3.11
 216  0.009  0.115  0.572-  66 1.63 153 1.64  76 1.69 207 1.69 256 2.39 248 3.05 246 3.07
 217  0.608  0.657  0.611- 166 1.63 200 1.65 103 1.67 206 1.67 271 2.89 233 3.13
 218  0.214  0.476  0.510- 178 1.61 177 1.63 174 1.66 137 1.66 229 3.11 262 3.14
 219  0.915  0.756  0.496- 102 1.65 180 1.65  86 1.66  91 1.66 232 2.99 240 3.03
 220  0.521  0.110  0.426- 113 1.64  64 1.65 141 1.66 121 1.67 251 3.08 234 3.12
 221  0.418  0.170  0.590-  84 1.64 201 1.65 101 1.68 161 1.69 261 3.13 274 3.13
 222  0.083  0.139  0.407-  63 1.64 144 1.65  89 1.65 157 1.66 215 3.11 214 3.13 268 3.14
 223  0.702  0.045  0.487-  96 1.64 165 1.65  62 1.65 181 1.66 234 3.09 224 3.10 258 3.15
 224  0.665  0.898  0.437-  95 1.53 165 1.66 125 1.66 156 1.67 270 2.83 257 3.06 223 3.10
 225  0.650  0.504  0.430- 105 1.65 163 1.65  93 1.67  99 1.68 233 3.08
 226  0.198  0.912  0.464- 136 1.50 182 1.64 159 1.66 115 1.67 244 3.01 241 3.06 267 3.07
 227  0.216  0.367  0.604-  83 1.63 178 1.63 107 1.64 183 1.65
 228  0.673  0.813  0.595- 184 1.62 116 1.64  98 1.68 206 1.71 255 2.91
 229  0.217  0.642  0.539- 176 1.63 169 1.63 202 1.65 137 1.65 244 3.09 218 3.11 273 3.12
 230  0.369  0.735  0.459- 104 1.65  73 1.65  57 1.66 185 1.68
 231  0.797  0.888  0.596- 140 1.66  98 1.67 109 1.67 205 1.68 240 2.86 232 3.00
 232  0.880  0.912  0.512-  72 1.60  91 1.62 109 1.65 117 1.65 219 2.99 231 3.00 256 3.05 247 3.13

 233  0.577  0.575  0.512-  99 1.58 166 1.63 100 1.63 133 1.64 243 3.00 225 3.08 217 3.13 275 3.14

 234  0.590  0.115  0.525-  62 1.59 121 1.61 158 1.62 148 1.65 261 2.85 245 3.08 223 3.09 220 3.12

 235  0.858  0.152  0.495- 186 1.65  87 1.65 120 1.66  65 1.69 247 3.07 238 3.15
 236  0.834  0.604  0.646-  59 1.64  71 1.65 204 1.66 154 1.66 271 2.93 240 3.01 266 3.01
 237  0.134  0.360  0.357- 187 1.65  80 1.65  70 1.67 188 1.69 262 3.11
 238  0.791  0.280  0.442- 167 1.63 110 1.65 114 1.67  65 1.67 235 3.15
 239  0.399  0.177  0.396-  64 1.65 122 1.65 189 1.66  74 1.67 259 3.07
 240  0.856  0.750  0.596- 164 1.63  86 1.64  71 1.64 205 1.66 231 2.86 236 3.01 219 3.03
 241  0.283  0.935  0.550- 115 1.58 175 1.64  60 1.68 208 1.70 274 2.38 226 3.06
 242  0.023  0.330  0.502- 160 1.64 168 1.64  82 1.65 132 1.66 246 3.10 215 3.11 248 3.13
 243  0.575  0.695  0.436-  68 1.51 100 1.52 146 1.65  88 1.68 233 3.00 270 3.06 257 3.10
 244  0.230  0.753  0.452- 136 1.63 176 1.66  81 1.66  73 1.67 254 2.97 226 3.01 229 3.09
 245  0.593  0.282  0.547- 170 1.62 111 1.63 158 1.63 142 1.64 234 3.08 263 3.13
 246  0.975  0.272  0.603-  97 1.63  66 1.65 190 1.66 168 1.67 216 3.07 242 3.10
 247  0.889  0.025  0.424-  87 1.64 172 1.64  72 1.65 143 1.66 235 3.07 232 3.13
 248  0.105  0.195  0.518- 145 1.61 144 1.62 153 1.64 160 1.65 216 3.05 242 3.13
 249  0.048  0.733  0.483- 162 1.63 102 1.65  94 1.65 126 1.66 267 3.05 273 3.15
 250  0.232  0.206  0.561- 135 1.62  83 1.63 145 1.63 173 1.65 272 3.03
 251  0.561  0.258  0.381- 118 1.45 113 1.59 155 1.66 191 1.66 259 2.87 220 3.08
 252  0.474  0.627  0.620- 129 1.63 124 1.64  85 1.68 200 1.69 275 2.91 276 3.02
 253  0.281  0.771  0.598- 192 1.64  90 1.64 202 1.65 175 1.65 212 3.06
 254  0.209  0.643  0.372- 193 1.65 150 1.67  81 1.67 149 1.68 244 2.97
 255  0.740  0.710  0.536- 164 1.61 106 1.63 130 1.63 116 1.63 257 2.91 228 2.91 271 3.07
 256  0.986  0.991  0.550-  61 1.63 117 1.65  76 1.68 207 1.69 216 2.39 232 3.05
 257  0.703  0.737  0.434-  95 1.65 128 1.65 146 1.66 130 1.69 255 2.91 224 3.06 243 3.10
 258  0.788  0.059  0.577-  96 1.64 131 1.64 120 1.66 140 1.69 223 3.15
 259  0.456  0.328  0.409- 147 1.66 118 1.66  74 1.67 151 1.69 251 2.87 239 3.07
 260  0.449  0.937  0.594-  69 1.65 203 1.65 119 1.69 209 1.69 261 2.36 274 2.74
 261  0.508  0.042  0.586- 148 1.62 201 1.65 119 1.70 209 1.70 260 2.36 234 2.85 221 3.13
 262  0.244  0.370  0.421-  67 1.65  70 1.66 194 1.66 174 1.71 237 3.11 218 3.14
 263  0.659  0.330  0.450- 167 1.64 155 1.65 163 1.65 170 1.65 245 3.13
 264  0.461  0.318  0.529- 111 1.62 151 1.65 101 1.68 127 1.70
 265  0.337  0.590  0.399- 150 1.65 195 1.67  58 1.67  57 1.68
 266  0.802  0.476  0.580-  75 1.63 171 1.65 154 1.66 112 1.67 271 2.90 236 3.01
 267  0.069  0.899  0.481-  94 1.50  78 1.64 159 1.65  61 1.66 249 3.05 226 3.07 214 3.11
 268  0.212  0.144  0.374-  89 1.65 152 1.65 197 1.66 196 1.69 272 3.12 222 3.14
 269  0.078  0.494  0.495- 108 1.63  82 1.64 177 1.65  92 1.66 273 3.10 211 3.13
 270  0.558  0.852  0.475- 156 1.29 198 1.60  68 1.66 199 1.67 224 2.83 243 3.06
 271  0.718  0.584  0.610- 106 1.64 103 1.65 204 1.65 112 1.66 217 2.89 266 2.90 236 2.93 255 3.07

 272  0.287  0.210  0.459- 173 1.63 122 1.63  67 1.66 152 1.67 250 3.03 268 3.12
 273  0.088  0.626  0.568- 162 1.63 138 1.64 108 1.64 169 1.65 269 3.10 229 3.12 249 3.15
 274  0.353  0.021  0.578- 161 1.63  69 1.66 208 1.70  60 1.70 241 2.38 260 2.74 221 3.13
 275  0.489  0.482  0.574- 133 1.64  77 1.66  85 1.68 127 1.69 252 2.91 233 3.14
 276  0.496  0.512  0.699- 210 1.72   3 1.91 124 1.97  77 2.02 252 3.02

  LATTYP: Found a simple orthorhombic cell.
 ALAT       =    18.1212369514
 B/A-ratio  =     1.2919258579
 C/A-ratio  =     1.4835282260
  
  Lattice vectors:
  
 A1 = (   0.0000000000, -18.1212369514,   0.0000000000)
 A2 = ( -23.4112945954,   0.0000000000,   0.0000000000)
 A3 = (   0.0000000000,   0.0000000000, -26.8833665073)


Analysis of symmetry for initial positions (statically):
=====================================================================
 Subroutine PRICEL returns:
 Original cell was already a primitive cell.
 

 Routine SETGRP: Setting up the symmetry group for a 
 simple orthorhombic supercell.


 Subroutine GETGRP returns: Found  1 space group operations
 (whereof  1 operations were pure point group operations)
 out of a pool of  8 trial point group operations.


The static configuration has the point symmetry C_1 .


Analysis of symmetry for dynamics (positions and initial velocities):
=====================================================================
 Subroutine PRICEL returns:
 Original cell was already a primitive cell.
 

 Routine SETGRP: Setting up the symmetry group for a 
 simple orthorhombic supercell.


 Subroutine GETGRP returns: Found  1 space group operations
 (whereof  1 operations were pure point group operations)
 out of a pool of  8 trial point group operations.


The dynamic configuration has the point symmetry C_1 .


Analysis of constrained symmetry for selective dynamics:
=====================================================================
 Subroutine PRICEL returns:
 Original cell was already a primitive cell.
 

 Routine SETGRP: Setting up the symmetry group for a 
 simple orthorhombic supercell.


 Subroutine GETGRP returns: Found  1 space group operations
 (whereof  1 operations were pure point group operations)
 out of a pool of  8 trial point group operations.


The constrained configuration has the point symmetry C_1 .


 Subroutine INISYM returns: Found  1 space group operations
 (whereof  1 operations are pure point group operations),
 and found     1 'primitive' translations



 KPOINTS: KPOINTS created by Atomic Simulation Env

Automatic generation of k-mesh.
Space group operators:
 irot       det(A)        alpha          n_x          n_y          n_z        tau_x        tau_y        tau_z
    1     1.000000     0.000000     1.000000     0.000000     0.000000     0.000000     0.000000     0.000000
 
 Subroutine IBZKPT returns following result:
 ===========================================
 
 Found      5 irreducible k-points:
 
 Following reciprocal coordinates:
            Coordinates               Weight
  0.000000  0.000000  0.000000      1.000000
  0.333333  0.000000  0.000000      2.000000
  0.000000  0.333333  0.000000      2.000000
  0.333333  0.333333  0.000000      2.000000
 -0.333333  0.333333  0.000000      2.000000
 
 Following cartesian coordinates:
            Coordinates               Weight
  0.000000  0.000000  0.000000      1.000000
  0.014238  0.000000  0.000000      2.000000
  0.000000  0.018395  0.000000      2.000000
  0.014238  0.018395  0.000000      2.000000
 -0.014238  0.018395  0.000000      2.000000
 


--------------------------------------------------------------------------------------------------------




 Dimension of arrays:
   k-points           NKPTS =      5   k-points in BZ     NKDIM =      5   number of bands    NBANDS=    768
   number of dos      NEDOS =    301   number of ions     NIONS =    276
   non local maximal  LDIM  =      6   non local SUM 2l+1 LMDIM =     18
   total plane-waves  NPLWV = ******
   max r-space proj   IRMAX =   2748   max aug-charges    IRDMAX=   9808
   dimension x,y,z NGX =   128 NGY =  100 NGZ =  150
   dimension x,y,z NGXF=   256 NGYF=  200 NGZF=  300
   support grid    NGXF=   256 NGYF=  200 NGZF=  300
   ions per type =               4  52 154  65   1
   NGX,Y,Z   is equivalent  to a cutoff of   9.09,  9.17,  9.28 a.u.
   NGXF,Y,Z  is equivalent  to a cutoff of  18.18, 18.35, 18.55 a.u.

 SYSTEM =  unknown system                          
 POSCAR =   C  H  O Si  W                          

 Startparameter for this run:
   NWRITE =      2    write-flag & timer
   PREC   = normal    normal or accurate (medium, high low for compatibility)
   ISTART =      0    job   : 0-new  1-cont  2-samecut
   ICHARG =      2    charge: 1-file 2-atom 10-const
   ISPIN  =      1    spin polarized calculation?
   LNONCOLLINEAR =      F non collinear calculations
   LSORBIT =      F    spin-orbit coupling
   INIWAV =      1    electr: 0-lowe 1-rand  2-diag
   LASPH  =      T    aspherical Exc in radial PAW
   METAGGA=      F    non-selfconsistent MetaGGA calc.

 Electronic Relaxation 1
   ENCUT  =  500.0 eV  36.75 Ry    6.06 a.u.  42.68 33.04 49.01*2*pi/ulx,y,z
   ENINI  =  500.0     initial cutoff
   ENAUG  =  644.9 eV  augmentation charge cutoff
   NELM   =     60;   NELMIN=  2; NELMDL=  0     # of ELM steps 
   EDIFF  = 0.1E-03   stopping-criterion for ELM
   LREAL  =      T    real-space projection
   NLSPLINE    = F    spline interpolate recip. space projectors
   LCOMPAT=      F    compatible to vasp.4.4
   GGA_COMPAT  = T    GGA compatible to vasp.4.4-vasp.4.6
   LMAXPAW     = -100 max onsite density
   LMAXMIX     =    2 max onsite mixed and CHGCAR
   VOSKOWN=      0    Vosko Wilk Nusair interpolation
   ROPT   =   -0.00050  -0.00050  -0.00050  -0.00050
   ROPT   =   -0.00050
 Ionic relaxation
   EDIFFG = -.5E-01   stopping-criterion for IOM
   NSW    =    500    number of steps for IOM
   NBLOCK =      1;   KBLOCK =    500    inner block; outer block 
   IBRION =      3    ionic relax: 0-MD 1-quasi-New 2-CG
   NFREE  =      0    steps in history (QN), initial steepest desc. (CG)
   ISIF   =      0    stress and relaxation
   IWAVPR =     11    prediction:  0-non 1-charg 2-wave 3-comb
   ISYM   =      2    0-nonsym 1-usesym 2-fastsym
   LCORR  =      T    Harris-Foulkes like correction to forces

   POTIM  = 0.0000    time-step for ionic-motion
   TEIN   =    0.0    initial temperature
   TEBEG  =    0.0;   TEEND  =   0.0 temperature during run
   SMASS  =  -3.00    Nose mass-parameter (am)
   estimated Nose-frequenzy (Omega)   =  0.10E-29 period in steps =  0.00 mass=  -0.125E-25a.u.
   SCALEE = 1.0000    scale energy and forces
   NPACO  =    256;   APACO  = 16.0  distance and # of slots for P.C.
   PSTRESS=    0.0 pullay stress

  Mass of Ions in am
   POMASS =  12.01  1.00 16.00 28.09183.85
  Ionic Valenz
   ZVAL   =   4.00  1.00  6.00  4.00  6.00
  Atomic Wigner-Seitz radii
   RWIGS  =  -1.00 -1.00 -1.00 -1.00 -1.00
  virtual crystal weights 
   VCA    =   1.00  1.00  1.00  1.00  1.00
   NELECT =    1258.0000    total number of electrons
   NUPDOWN=      -1.0000    fix difference up-down

 DOS related values:
   EMIN   =  10.00;   EMAX   =-10.00  energy-range for DOS
   EFERMI =   0.00
   ISMEAR =     0;   SIGMA  =   0.20  broadening in eV -4-tet -1-fermi 0-gaus

 Electronic relaxation 2 (details)
   IALGO  =     68    algorithm
   LDIAG  =      T    sub-space diagonalisation (order eigenvalues)
   LSUBROT=      F    optimize rotation matrix (better conditioning)
   TURBO    =      0    0=normal 1=particle mesh
   IRESTART =      0    0=no restart 2=restart with 2 vectors
   NREBOOT  =      0    no. of reboots
   NMIN     =      0    reboot dimension
   EREF     =   0.00    reference energy to select bands
   IMIX   =      4    mixing-type and parameters
     AMIX     =   0.40;   BMIX     =  1.00
     AMIX_MAG =   1.60;   BMIX_MAG =  1.00
     AMIN     =   0.10
     WC   =   100.;   INIMIX=   1;  MIXPRE=   1;  MAXMIX= -45

 Intra band minimization:
   WEIMIN = 0.0010     energy-eigenvalue tresh-hold
   EBREAK =  0.33E-07  absolut break condition
   DEPER  =   0.30     relativ break condition  

   TIME   =   0.40     timestep for ELM

  volume/ion in A,a.u.               =      41.32       278.86
  Fermi-wavevector in a.u.,A,eV,Ry     =   0.785120  1.483662  8.386815  0.616413
  Thomas-Fermi vector in A             =   1.889391

 Write flags
   LWAVE        =      T    write WAVECAR
   LDOWNSAMPLE  =      F    k-point downsampling of WAVECAR
   LCHARG       =      T    write CHGCAR
   LVTOT        =      F    write LOCPOT, total local potential
   LVHAR        =      F    write LOCPOT, Hartree potential only
   LELF         =      F    write electronic localiz. function (ELF)
   LORBIT       =      0    0 simple, 1 ext, 2 COOP (PROOUT), +10 PAW based schemes


 Dipole corrections
   LMONO  =      F    monopole corrections only (constant potential shift)
   LDIPOL =      T    correct potential (dipole corrections)
   IDIPOL =      3    1-x, 2-y, 3-z, 4-all directions 
   EPSILON=  1.0000000 bulk dielectric constant

 Exchange correlation treatment:
   GGA     =    RP    GGA type
   LEXCH   =     9    internal setting for exchange type
   VOSKOWN=      0    Vosko Wilk Nusair interpolation
   LHFCALC =     F    Hartree Fock is set to
   LHFONE  =     F    Hartree Fock one center treatment
   AEXX    =    0.0000 exact exchange contribution

 Linear response parameters
   LEPSILON=     F    determine dielectric tensor
   LRPA    =     F    only Hartree local field effects (RPA)
   LNABLA  =     F    use nabla operator in PAW spheres
   LVEL    =     F    velocity operator in full k-point grid
   LINTERFAST=   F  fast interpolation
   KINTER  =     0    interpolate to denser k-point grid
   CSHIFT  =0.1000    complex shift for real part using Kramers Kronig
   OMEGAMAX=  -1.0    maximum frequency
   DEG_THRESHOLD= 0.2000000E-02 threshold for treating states as degnerate
   RTIME   =   -0.100 relaxation time in fs
  (WPLASMAI=    0.000 imaginary part of plasma frequency in eV, 0.658/RTIME)
   DFIELD  = 0.0000000 0.0000000 0.0000000 field for delta impulse in time

 Orbital magnetization related:
   ORBITALMAG=     F  switch on orbital magnetization
   LCHIMAG   =     F  perturbation theory with respect to B field
   DQ        =  0.001000  dq finite difference perturbation B field
   LLRAUG    =     F  two centre corrections for induced B field



--------------------------------------------------------------------------------------------------------


 quickmin algorithm: (dynamic with friction)
   using selective dynamics as specified on POSCAR
 charge density and potential will be updated during run
 non-spin polarized calculation
 RMM-DIIS sequential band-by-band and
  variant of blocked Davidson during initial phase
 perform sub-space diagonalisation
    before iterative eigenvector-optimisation
 modified Broyden-mixing scheme, WC =      100.0
 initial mixing is a Kerker type mixing with AMIX =  0.4000 and BMIX =      1.0000
 Hartree-type preconditioning will be used
 using additional bands          139
 real space projection scheme for non local part
 use partial core corrections
 calculate Harris-corrections to forces   (improved forces if not selfconsistent)
 use gradient corrections 
 use of overlap-Matrix (Vanderbilt PP)
 Gauss-broadening in eV      SIGMA  =   0.20


--------------------------------------------------------------------------------------------------------


  energy-cutoff  :      500.00
  volume of cell :    11405.04
      direct lattice vectors                 reciprocal lattice vectors
    23.411294595  0.000000000  0.000000000     0.042714426  0.000000000  0.000000000
     0.000000000 18.121236951  0.000000000     0.000000000  0.055183871  0.000000000
     0.000000000  0.000000000 26.883366507     0.000000000  0.000000000  0.037197722

  length of vectors
    23.411294595 18.121236951 26.883366507     0.042714426  0.055183871  0.037197722



 k-points in units of 2pi/SCALE and weight: KPOINTS created by Atomic Simulation Env
   0.00000000  0.00000000  0.00000000       0.111
   0.01423814  0.00000000  0.00000000       0.222
   0.00000000  0.01839462  0.00000000       0.222
   0.01423814  0.01839462  0.00000000       0.222
  -0.01423814  0.01839462  0.00000000       0.222

 k-points in reciprocal lattice and weights: KPOINTS created by Atomic Simulation Env
   0.00000000  0.00000000  0.00000000       0.111
   0.33333333  0.00000000  0.00000000       0.222
   0.00000000  0.33333333  0.00000000       0.222
   0.33333333  0.33333333  0.00000000       0.222
  -0.33333333  0.33333333  0.00000000       0.222

 position of ions in fractional coordinates (direct lattice) 
   0.60819254  0.39554442  0.70286299
   0.54405211  0.58153844  0.79631214
   0.54426029  0.57056529  0.74068808
   0.60692799  0.43422684  0.74555953
   0.76124933  0.10256580  0.65146713
   0.92642768  0.27866896  0.35633493
   0.79333970  0.20727890  0.37345652
   0.97453911  0.94360860  0.32530279
   0.62573266  0.96347285  0.37523120
   0.82053840  0.99500666  0.36899263
   0.74999307  0.14117876  0.45803819
   0.91543443  0.24946092  0.50914735
   0.58349286  0.30426355  0.30592717
   0.89157897  0.33437315  0.61560043
   0.58796038  0.36147793  0.61032820
   0.59322675  0.87078517  0.57815208
   0.03369777  0.33766529  0.65228468
   0.93527051  0.41951423  0.45410146
   0.74613838  0.53031199  0.42248819
   0.80038850  0.38436218  0.63658943
   0.59110202  0.56868283  0.37803474
   0.71843379  0.64593279  0.38346059
   0.84115291  0.54242660  0.41959617
   0.00476455  0.60379815  0.35777830
   0.82835870  0.71235667  0.46794226
   0.88115102  0.59828844  0.71919395
   0.51999031  0.98556476  0.42170307
   0.22309457  0.98015484  0.39320502
   0.21637369  0.23785146  0.31923033
   0.15750105  0.32980623  0.27898292
   0.34154688  0.15558571  0.33077276
   0.22271586  0.04575893  0.32273843
   0.51099315  0.82598653  0.54665070
   0.36982213  0.23468384  0.64759669
   0.24347439  0.09312130  0.59854147
   0.31538097  0.48713646  0.44243467
   0.40895618  0.43873486  0.40569060
   0.39849950  0.79311361  0.38878680
   0.24420236  0.65543008  0.29432688
   0.31174138  0.41847571  0.36925764
   0.40547429  0.58427965  0.33881989
   0.13935762  0.48797365  0.35192946
   0.59326935  0.69798713  0.35239799
   0.46900683  0.86142747  0.44382838
   0.12313899  0.32391659  0.61335272
   0.07511905  0.66317648  0.64646512
   0.24408006  0.38921479  0.68211067
   0.24612726  0.81523055  0.67006009
   0.58394052  0.34474767  0.69770096
   0.63462907  0.41399350  0.67176848
   0.58658558  0.57117018  0.81269401
   0.51255466  0.54574882  0.81463067
   0.53301933  0.63945228  0.80492819
   0.57691139  0.60254698  0.72050005
   0.63280457  0.48375270  0.75037774
   0.58148863  0.41686510  0.77751923
   0.36894173  0.64835510  0.43900002
   0.34681565  0.50403387  0.42038813
   0.85934179  0.56669746  0.69720241
   0.34842021  0.95924025  0.53064534
   0.03341971  0.93270218  0.52845463
   0.63635548  0.07886855  0.48937667
   0.06864615  0.05226542  0.39511073
   0.45189954  0.12956232  0.42059728
   0.80588415  0.21365018  0.48316661
   0.97320998  0.18158809  0.59878904
   0.27476529  0.29917287  0.44851223
   0.55635417  0.77509129  0.44175101
   0.39113898  0.97415211  0.61962750
   0.17751724  0.34996845  0.40527312
   0.86601511  0.68405617  0.63735067
   0.86569601  0.96717693  0.46703846
   0.30104714  0.76093683  0.45792526
   0.42161095  0.26125222  0.37959630
   0.81074953  0.46484831  0.52021640
   0.98343253  0.07284069  0.52115736
   0.51525091  0.47079961  0.63126426
   0.03453641  0.91994776  0.42940526
   0.96303654  0.30319531  0.35125762
   0.06962669  0.33610577  0.37637178
   0.20829566  0.72864429  0.39536010
   0.03890126  0.41910192  0.49910875
   0.24005669  0.28578926  0.58797288
   0.39756854  0.19504795  0.64543168
   0.45417408  0.56287711  0.57794831
   0.90957709  0.74896987  0.55747529
   0.86912727  0.10804334  0.44227833
   0.57257679  0.66733185  0.37613173
   0.14242656  0.15912550  0.37597224
   0.35017887  0.76616794  0.60662492
   0.91099605  0.84504757  0.48317962
   0.06133801  0.53687171  0.44225348
   0.70833903  0.55516655  0.41995768
   0.07548726  0.81680680  0.48299416
   0.70046477  0.82755571  0.43263529
   0.73004299  0.04888597  0.54302713
   0.91927333  0.30250289  0.63211784
   0.73467420  0.85176216  0.61286698
   0.62512195  0.52739400  0.48637871
   0.55657330  0.62970304  0.46724942
   0.42552948  0.24820675  0.55625235
   0.97829009  0.72824363  0.47679564
   0.65317115  0.59408509  0.63342530
   0.39624864  0.74750728  0.51507097
   0.60269007  0.51766545  0.38567099
   0.72009227  0.63002827  0.55703070
   0.14830948  0.36502173  0.62108093
   0.06627746  0.54855767  0.54195705
   0.81884777  0.88459365  0.53666483
   0.82821553  0.35538514  0.45190334
   0.52757410  0.29216935  0.52813021
   0.73600831  0.49853959  0.59614558
   0.55743394  0.17243111  0.39490854
   0.80596408  0.25641257  0.38329286
   0.23744622  0.95325075  0.50791956
   0.69187197  0.77444193  0.54197957
   0.92382573  0.94976404  0.55295922
   0.52573722  0.31778112  0.39855594
   0.46713982  0.99243799  0.54623047
   0.83742679  0.09497954  0.53985274
   0.53790325  0.11641749  0.48623709
   0.35019344  0.18660873  0.43963639
   0.01176032  0.96241390  0.33524376
   0.44861627  0.59225150  0.67162441
   0.65496522  0.92539750  0.37922825
   0.07629334  0.68602626  0.43588102
   0.45816549  0.40278164  0.55527710
   0.71921944  0.70042085  0.37958300
   0.45096780  0.70583661  0.59850200
   0.75255106  0.70932458  0.47629548
   0.77850314  0.12058687  0.62102506
   0.99327462  0.30801347  0.44840298
   0.53674578  0.50753047  0.53319824
   0.81677759  0.49906173  0.42344221
   0.23578707  0.14520590  0.60534429
   0.20353331  0.83070132  0.47053363
   0.23982575  0.55891651  0.52306509
   0.06132708  0.62548098  0.62390187
   0.04607407  0.60234669  0.35417863
   0.80024182  0.97834373  0.60583360
   0.53799091  0.02769749  0.40450275
   0.60224072  0.31220919  0.60353773
   0.86154611  0.00408085  0.36920633
   0.09491131  0.14902284  0.46708233
   0.17139255  0.20431402  0.53099293
   0.64098865  0.70443872  0.45481558
   0.43678778  0.40976848  0.38641325
   0.57355902  0.05863427  0.57130769
   0.15143775  0.59340802  0.38895836
   0.26773979  0.60233753  0.39230630
   0.44025846  0.32219818  0.47032443
   0.23800967  0.15851113  0.42990119
   0.07280028  0.15014888  0.56252477
   0.84367243  0.54468195  0.59970317
   0.62117943  0.27993988  0.41090545
   0.60266699  0.89152667  0.46722346
   0.03138539  0.19528983  0.38899188
   0.60923948  0.19424097  0.54748813
   0.13279973  0.93835464  0.47948708
   0.08022692  0.28037032  0.51155626
   0.37220400  0.10598722  0.56838781
   0.06624745  0.69687833  0.53576833
   0.66648838  0.41538488  0.43001156
   0.79911613  0.72955664  0.56407417
   0.70383856  0.95720843  0.47018456
   0.59876495  0.63590153  0.55253571
   0.72284030  0.29368465  0.45166811
   0.97756612  0.31421494  0.54724074
   0.15821946  0.63023623  0.57066832
   0.63333384  0.32678308  0.50780070
   0.81938884  0.39632568  0.60553759
   0.95857820  0.02724304  0.41695300
   0.28201362  0.19501984  0.51863140
   0.24925755  0.44303289  0.46105570
   0.27198142  0.85076668  0.56929099
   0.20366815  0.68557317  0.48688872
   0.14712345  0.47606988  0.49254493
   0.22478787  0.42234475  0.55648493
   0.91141698  0.45274460  0.47371881
   0.86978818  0.70456011  0.46415352
   0.73812021  0.09283462  0.44522965
   0.22218344  0.92978119  0.40794682
   0.25482779  0.40229380  0.64845042
   0.63039420  0.88285850  0.59342379
   0.41022327  0.78906239  0.42343739
   0.91777135  0.19603829  0.50824515
   0.13254706  0.44353611  0.33227266
   0.15514768  0.30352326  0.31056042
   0.37300515  0.13090704  0.34795342
   0.03475747  0.29193477  0.63348611
   0.57268926  0.25686819  0.32009968
   0.24478991  0.77065440  0.65014055
   0.20737430  0.64840505  0.31036906
   0.27537441  0.39219130  0.36737583
   0.36535081  0.59758663  0.34222079
   0.22638085  0.05618082  0.35811888
   0.24120333  0.19607823  0.32934297
   0.50127293  0.89230162  0.45484168
   0.54998093  0.82791703  0.53435677
   0.54305234  0.64375198  0.63315684
   0.47819186  0.12330333  0.59675927
   0.26188618  0.69533553  0.56863256
   0.44174891  0.84860941  0.58091060
   0.76450137  0.61698409  0.64987533
   0.84456421  0.83160073  0.62294996
   0.63827730  0.73938985  0.62184290
   0.00807344  0.03348122  0.60290630
   0.28386458  0.00350141  0.59336280
   0.50262263  0.97240249  0.62843863
   0.45432964  0.46751806  0.74227303
   0.08322528  0.60642030  0.40641308
   0.40856680  0.76685670  0.57416804
   0.84176382  0.44145312  0.46783897
   0.01708949  0.99048204  0.39361135
   0.01470021  0.28419027  0.39108141
   0.00924733  0.11506677  0.57242121
   0.60805924  0.65731809  0.61082270
   0.21402622  0.47601065  0.50970662
   0.91506213  0.75556094  0.49625454
   0.52057854  0.11045563  0.42598659
   0.41827690  0.17040268  0.58953796
   0.08345253  0.13917208  0.40698087
   0.70189793  0.04484625  0.48732303
   0.66505935  0.89803746  0.43747644
   0.65009874  0.50402706  0.43015089
   0.19846065  0.91248223  0.46399069
   0.21554473  0.36684686  0.60367514
   0.67291261  0.81256068  0.59494210
   0.21659088  0.64191119  0.53861541
   0.36878912  0.73512773  0.45920930
   0.79696145  0.88808410  0.59561704
   0.87975454  0.91225531  0.51200248
   0.57695981  0.57511772  0.51219190
   0.58980258  0.11485915  0.52524207
   0.85812234  0.15211323  0.49517595
   0.83448798  0.60394243  0.64604780
   0.13373852  0.36031890  0.35687228
   0.79065529  0.27993925  0.44187265
   0.39917610  0.17749484  0.39600320
   0.85576089  0.75002826  0.59646274
   0.28268968  0.93534794  0.54985586
   0.02307473  0.33044751  0.50224551
   0.57455938  0.69549008  0.43556436
   0.23024095  0.75260050  0.45196954
   0.59323839  0.28195523  0.54666821
   0.97539829  0.27233380  0.60262701
   0.88890636  0.02540900  0.42420019
   0.10470047  0.19548956  0.51774205
   0.04814566  0.73303709  0.48263019
   0.23196707  0.20584941  0.56102451
   0.56140781  0.25778527  0.38122611
   0.47393091  0.62681838  0.61959793
   0.28095203  0.77111879  0.59798231
   0.20850083  0.64339984  0.37179454
   0.74020287  0.71000662  0.53586588
   0.98648379  0.99066504  0.55028137
   0.70310456  0.73681815  0.43426040
   0.78772962  0.05924654  0.57684579
   0.45631390  0.32845159  0.40928789
   0.44866426  0.93724816  0.59418611
   0.50780994  0.04201271  0.58629285
   0.24424715  0.37040632  0.42094710
   0.65852534  0.33000211  0.45034791
   0.46136019  0.31755082  0.52877715
   0.33729937  0.58994254  0.39908301
   0.80247692  0.47633821  0.57982196
   0.06920979  0.89885916  0.48050551
   0.21190758  0.14445432  0.37359659
   0.07823286  0.49398499  0.49468762
   0.55757019  0.85234010  0.47473025
   0.71762018  0.58441679  0.60978849
   0.28664212  0.21010174  0.45911077
   0.08807270  0.62555541  0.56768612
   0.35289944  0.02050751  0.57814725
   0.48900697  0.48196833  0.57438153
   0.49573513  0.51224259  0.69904134

 position of ions in cartesian coordinates  (Angst):
  14.23857479  7.16775417 18.89532326
  12.73696428 10.53819581 21.40755116
  12.74183793 10.33934879 19.91218923
  14.20896987  7.86872745 20.04315021
  17.82183224  1.85861915 17.51362958
  21.68887124  5.04982630  9.57948250
  18.57310935  3.75615001 10.03976840
  22.81522226 17.09935504  8.74523415
  14.64921175 17.45931981 10.08747787
  19.20986618 18.03075152  9.91976410
  17.55830880  2.55833368 12.31360861
  21.43150518  4.52054037 13.68759481
  13.66032332  5.51363181  8.22435231
  20.87301784  6.05925508 16.54941191
  13.76491368  6.55042724 16.40767660
  13.88820618 15.77970432 15.54267425
   0.78890839  6.11891270 17.53560802
  21.89589338  7.60211669 12.20777585
  17.46806539  9.60990927 11.35790489
  18.73813094  6.96511814 17.11366706
  13.83846346 10.30523625 10.16284657
  16.81946503 11.70510106 10.30871170
  19.69247867  9.82944087 11.28015755
   0.11154425 10.94156933  9.61828518
  19.39294954 12.90878407 12.57986315
  20.62888614 10.84172656 19.33435466
  12.17364643 17.85965257 11.33679820
   5.22293275 17.76161801 10.57067472
   5.06558822  4.31016263  8.58198589
   3.68730349  5.97649684  7.50000000
   7.99605454  2.81940543  8.89228530
   5.21406665  0.82920834  8.67629559
  11.96301126 14.96789755 14.69581112
   8.65801484  4.25276140 17.40957915
   5.70005075  1.68747308 16.09080967
   7.38347683  8.82751530 11.89413327
   9.57419369  7.95041833 10.90632902
   9.32938926 14.37219961 10.45189795
   5.71709332 11.87720376  7.91249741
   7.29826932  7.58329756  9.92688859
   9.49267817 10.58787004  9.10861924
   3.26254231  8.84268607  9.46104865
  13.88920341 12.64839014  9.47364424
  10.98005707 15.61013128 11.93160111
   2.88284315  5.86976931 16.48898609
   1.75863410 12.01757807 17.37915884
   5.71423011  7.05305344 18.33743119
   5.76215783 14.77298593 18.01347105
  13.67080364  6.24725416 18.75655052
  14.85748806  7.50207427 18.05939814
  13.73272793 10.35031013 21.84795102
  11.99956824  9.88964365 21.90001477
  12.47867246 11.58766637 21.63917951
  13.50624262 10.91889658 19.36946679
  14.81477430  8.76619734 20.17267982
  13.61340172  7.55411123 20.90233447
   8.63740362 11.74899635 11.80179838
   8.11940335  9.13371715 11.30144811
  20.11830370 10.26925888 18.74314790
   8.15696825 17.38261984 14.26553325
   0.78239872 16.90171727 14.20663948
  14.89790566  1.42919560 13.15609244
   1.60709516  0.94711408 10.62190669
  10.57955331  2.34782959 11.30707087
  18.86679123  3.87160553 12.98914499
  22.78410551  3.29060073 16.09746521
   6.43261122  5.42138248 12.05751853
  13.02497128 14.04561294 11.87575437
   9.15706980 17.65284113 16.65767324
   4.15590840  6.34186119 10.89510594
  20.27453483 12.39594387 17.13413159
  20.26706432 17.52644236 12.55556607
   7.04790320 13.78911669 12.31057251
   9.87045805  4.73421333 10.20482654
  18.98069600  8.42362639 13.98516802
  23.02342876  1.31996332 14.01046426
  12.06269092  8.53147126 16.97050848
   0.80854198 16.67059137 11.54385891
  22.54593219  5.49427402  9.44298747
   1.63005096  6.09065222 10.11814055
   4.87647100 13.20393591 10.62861051
   0.91072893  7.59464512 13.41772355
   5.62003799  5.17885489 15.80669049
   9.30759411  3.53451021 17.35137653
  10.63280312 10.20002941 15.53719628
  21.29437717 13.57226044 14.98681253
  20.34739459  1.95787901 11.88993046
  13.40476402 12.09287863 10.11168720
   3.33439013  2.88355087 10.10739962
   8.19814078 13.88391086 16.30812018
  21.32759690 15.31330727 12.98949491
   1.43600223  9.72877939 11.88926245
  16.58313365 10.06030463 11.28987623
   1.76725442 14.80154965 12.98450890
  16.39878711 14.99633320 11.63069310
  17.09125141  0.88587429 14.59839725
  21.52137864  5.48172655 16.99345550
  17.19967411 15.43498387 16.47592769
  14.63491423  9.55703168 13.07549710
  13.03010146 11.41099800 12.56123752
   9.96219604  4.49781336 14.95393575
  22.90303759 13.19667544 12.81787194
  15.29158210 10.76555665 17.02860456
   9.27669362 13.54575652 13.84684169
  14.10975474  9.38073831 10.36813464
  16.85829223 11.41689149 14.97486047
   3.47211693  6.61464522 16.69674629
   1.55164112  9.94054351 14.56962988
  19.17028638 16.02993120 14.42735741
  19.38959778  6.44001838 12.14868300
  12.35119271  5.29447000 14.19791788
  17.23090739  9.03415400 16.02639999
  13.05025009  3.12466491 10.61647095
  18.86866258  4.64651294 10.30420244
   5.55892333 17.27408272 13.65458756
  16.19761851 14.03384563 14.57023535
  21.62795635 17.21089914 14.86540544
  12.30818899  5.75858696 10.71452528
  10.93634784 17.98420397 14.68451391
  19.60524534  1.72114675 14.51305902
  12.59301152  2.10962891 13.07168996
   8.19848185  3.38158105 11.81890631
   0.27532438 17.44013032  9.01248080
  10.50268768 10.73232977 18.05552510
  15.33358375 16.76934745 10.19493214
   1.78612593 12.43164436 11.71794928
  10.72624734  7.29890154 14.92771782
  16.83785811 12.69249221 10.20446890
  10.55774003 12.79063252 16.08974855
  17.61819454 12.85383870 12.80442605
  18.22576645  2.18518328 16.69524441
  23.25384464  5.58158513 12.05458163
  12.56591366  9.19708000 14.33416359
  19.12182067  9.04361594 11.38355200
   5.52008052  2.63131044 16.27369233
   4.76497818 15.05333538 12.64952801
   5.61463126 10.12825855 14.06175065
   1.43574642 11.33448909 16.77258261
   1.07865368 10.91526713  9.52151395
  18.73469709 17.72879864 16.28684677
  12.59506368  0.50191281 10.87439573
  14.09923497  5.65761665 16.22512602
  20.16990973  0.07395004  9.92550906
   2.22199659  2.70047811 12.55674536
   4.01252141  3.70242274 14.27487759
  15.00637423 12.76530096 12.22697399
  10.22576747  7.42551173 10.38808912
  13.42775913  1.06252551 15.35867390
   3.54535369 10.75328740 10.45651017
   6.26813510 10.91510113 10.54651395
  10.30702050  5.83862960 12.64390410
   5.57211440  2.87241773 11.55719116
   1.70434871  2.72088341 15.12255948
  19.75146382  9.87031074 16.12204007
  14.54261459  5.07285683 11.04652184
  14.10921452 16.15556596 12.56053950
   0.73477264  3.53889327 10.45741115
  14.26308502  3.51988660 14.71832395
   3.10901351 17.00414686 12.89022683
   1.87821609  5.08065706 13.75235455
   8.71377745  1.92061956 15.28017791
   1.55093847 12.62829732 14.40325650
  15.60335581  7.52728779 11.56015827
  18.70834317 13.22046866 15.16421274
  16.47777184 17.34580083 12.64014391
  14.01786259 11.52332221 14.85401994
  16.92262720  5.32192920 12.14235921
  22.88608835  5.69396341 14.71167347
   3.70412242 11.42066012 15.34148555
  14.82716522  5.92171361 13.65139239
  19.18295359  7.18191154 16.27888894
  22.44155659  0.49367766 11.20910044
   6.60230394  3.53400064 13.94255809
   5.83544193  8.02830396 12.39472924
   6.36743710 15.41694463 15.30445820
   4.76813504 12.42343385 13.08920785
   3.44435051  8.62697504 13.24126574
   5.26257506  7.65340935 14.96018825
  21.33745138  8.20429214 12.73515651
  20.36286723 12.76750071 12.47800922
  17.28034963  1.68227812 11.96927179
   5.20160188 16.84878525 10.96698378
   5.96584838  7.29006132 17.43253043
  14.75834430 15.99848806 15.95322920
   9.60385771 14.29878657 11.38342242
  21.48621551  3.55245637 13.66334053
   3.10309823  8.03742301  8.93260776
   3.63220806  5.50021683  8.34890949
   8.73253334  2.37219755  9.35415932
   0.81371749  5.29021922 17.03023926
  13.40739699  4.65476936  8.60535697
   5.73084861 13.96521096 17.47796673
   4.85490080 11.74990154  8.34376522
   6.44687148  7.10699146  9.87629901
   8.55333550 10.82900896  9.20004704
   5.29986877  1.01806602  9.62744117
   5.64688233  3.55318002  8.85384768
  11.73544815 16.16960912 12.22767567
  12.87576561 15.00288064 14.36530895
  12.71355826 11.66558219 17.02138736
  11.19509042  2.23440888 16.04289826
   6.13109451 12.60033994 15.28675755
  10.34191398 15.37785215 15.61683252
  17.89796679 11.18051493 17.47083677
  19.77234143 15.06963389 16.74699204
  14.94289787 13.39865864 16.71723063
   0.18900958  0.60672117 16.20815096
   6.64563726  0.06344995 15.95158950
  11.76704655 17.62113595 16.89454591
  10.63644509  8.47200549 19.95479802
   1.94841153 10.98908596 10.92575188
   9.56507774 13.89639200 15.43556982
  19.70678074  7.99967650 12.57708649
   0.40008717 17.94875972 10.58159830
   0.34415087  5.14987929 10.51358498
   0.21649202  2.08515217 15.38860928
  14.23545411 11.91141679 16.42097049
   5.01063093  8.62590174 13.70262997
  21.42278905 13.69169878 13.34099278
  12.18741762  2.00159257 11.45195358
   9.79240382  3.08790732 15.84876496
   1.95373172  2.52197018 10.94101594
  16.43233932  0.81266960 13.10088356
  15.56990047 16.27354966 11.76083937
  15.21965321  9.13359373 11.56390395
   4.64622068 16.53530673 12.47363180
   5.04618118  6.64771882 16.22882001
  15.75375545 14.72460459 15.99404648
   5.07067287 11.63222480 14.47979544
   8.63383069 13.32142384 12.34509184
  18.65789921 16.09318247 16.01219109
  20.59619263 16.53119458 13.76435032
  13.50737598 10.42184454 13.76944270
  13.80804199  2.08138984 14.12027519
  20.08975493  2.75647992 13.31199648
  19.53644391 10.94418392 17.36793977
   3.13099191  6.52942423  9.59392828
  18.51026388  5.07284540 11.87902451
   9.34522920  3.21642612 10.64589911
  20.03447040 13.59143987 16.03492649
   6.61813127 16.94966163 14.78197665
   0.54020935  5.98811771 13.50205012
  13.45117902 12.60314055 11.70943634
   5.39023881 13.63805192 12.15046292
  13.88847865  5.10937757 14.69628182
  22.83533662  4.93502527 16.20064290
  20.81044864  0.46044249 11.40392910
   2.45117344  3.54251257 13.91864922
   1.12715225 13.28353886 12.97472440
   5.43064936  3.73024585 15.08222762
  13.14328356  4.67138795 10.24864117
  11.09533609 11.35872436 16.65687812
   6.57745065 13.97362625 16.07577758
   4.88127424 11.65920103  9.99508876
  17.32910739 12.86619819 14.40587884
  23.09486256 17.95207589 14.79341577
  16.46058793 13.35205634 11.67438144
  18.44177009  1.07362052 15.50755692
  10.68289909  5.95194918 11.00303640
  10.50381116 16.98409602 15.97372305
  11.88848820  0.76132230 15.76152556
   5.71814202  6.71222076 11.31647527
  15.41693082  5.98004644 12.10686792
  10.80103944  5.75441357 14.21530982
   7.89661487 10.69048858 10.72869482
  18.78702354  8.63183750 15.58756619
   1.62029077 16.28843974 12.91760565
   4.96103075  2.61769098 10.04353415
   1.83153245  8.95161914 13.29886860
  13.05343995 15.44545689 12.76234739
  16.80041739 10.59035518 16.39316750
   6.71066321  3.80730338 12.34244318
   2.06189585 11.33583778 15.26131411
   8.26183282  0.37162144 15.54254429
  11.44828635  8.73386233 15.44130925
  11.60580113  9.28246942 18.79258468



--------------------------------------------------------------------------------------------------------


 k-point  1 :   0.0000 0.0000 0.0000  plane waves:  289505
 k-point  2 :   0.3333 0.0000 0.0000  plane waves:  289422
 k-point  3 :   0.0000 0.3333 0.0000  plane waves:  289550
 k-point  4 :   0.3333 0.3333 0.0000  plane waves:  289551
 k-point  5 :  -0.3333 0.3333 0.0000  plane waves:  289551

 maximum and minimum number of plane-waves per node :     72451    72309

 maximum number of plane-waves:    289551
 maximum index in each direction: 
   IXMAX=   43   IYMAX=   33   IZMAX=   49
   IXMIN=  -43   IYMIN=  -33   IZMIN=  -49


 real space projection operators:
  total allocation   :      13783.52 KBytes
  max/ min on nodes  :       3452.10       3437.51


 parallel 3D FFT for wavefunctions:
    minimum data exchange during FFTs selected (reduces bandwidth)
 parallel 3D FFT for charge:
    minimum data exchange during FFTs selected (reduces bandwidth)


 total amount of memory used by VASP MPI-rank0  2543071. kBytes
=======================================================================

   base      :      30000. kBytes
   nonlr-proj:      16925. kBytes
   fftplans  :      79581. kBytes
   grid      :     173670. kBytes
   one-center:       1073. kBytes
   wavefun   :    2241822. kBytes

     INWAV:  cpu time    0.0001: real time    0.0001
 Broyden mixing: mesh for mixing (old mesh)
   NGX = 85   NGY = 67   NGZ = 99
  (NGX  =256   NGY  =200   NGZ  =300)
  gives a total of 563805 points

 initial charge density was supplied:
 charge density of overlapping atoms calculated
 number of electron    1258.0000000 magnetization 
 keeping initial charge density in first step


--------------------------------------------------------------------------------------------------------


 Maximum index for non-local projection operator          643
 Maximum index for augmentation-charges         1193 (set IRDMAX)


--------------------------------------------------------------------------------------------------------


 First call to EWALD:  gamma=   0.079
 Maximum number of real-space cells 3x 3x 2
 Maximum number of reciprocal cells 3x 2x 3

    FEWALD:  cpu time    0.0870: real time    0.0872


--------------------------------------- Iteration      1(   1)  ---------------------------------------


    POTLOK:  cpu time    1.0107: real time    1.1021
    SETDIJ:  cpu time    2.0736: real time    2.0806
     EDDAV:  cpu time  344.7820: real time  346.0757
       DOS:  cpu time    0.0056: real time    0.0056
    --------------------------------------------
      LOOP:  cpu time  347.8719: real time  349.2640

 eigenvalue-minimisations  :  8592
 total energy-change (2. order) : 0.1284860E+05  (-0.4947984E+05)
 number of electron    1258.0000000 magnetization 
 augmentation part     1258.0000000 magnetization 

 DIPCOR: dipole corrections for dipol
 direction  3 min pos    71,
 dipolmoment           0.000000      0.000000      1.473370 electrons x Angstroem
 Tr[quadrupol]    -95191.244879

 energy correction for charged system         0.000000 eV
 dipol+quadrupol energy correction           -0.017650 eV
 added-field ion interaction        185.866282 eV  (added to PSCEN)


 Free energy of the ion-electron system (eV)
  ---------------------------------------------------
  alpha Z        PSCENC =       676.01158524
  Ewald energy   TEWEN  =    309373.60598938
  -Hartree energ DENC   =   -371601.65873349
  -exchange      EXHF   =         0.00000000
  -V(xc)+E(xc)   XCENC  =      3777.49059615
  PAW double counting   =     59955.48764796   -58973.29898038
  entropy T*S    EENTRO =        -1.65950874
  eigenvalues    EBANDS =     -5064.62579272
  atomic energy  EATOM  =     74707.24229009
  Solvation  Ediel_sol  =         0.00000000
  ---------------------------------------------------
  free energy    TOTEN  =     12848.59509349 eV

  energy without entropy =    12850.25460223  energy(sigma->0) =    12849.42484786


--------------------------------------------------------------------------------------------------------




--------------------------------------- Iteration      1(   2)  ---------------------------------------


     EDDAV:  cpu time  412.0621: real time  413.6055
       DOS:  cpu time    0.0031: real time    0.0031
    --------------------------------------------
      LOOP:  cpu time  412.0652: real time  413.6086

 eigenvalue-minimisations  : 10744
 total energy-change (2. order) :-0.1223049E+05  (-0.1183801E+05)
 number of electron    1258.0000000 magnetization 
 augmentation part     1258.0000000 magnetization 

 DIPCOR: dipole corrections for dipol
 direction  3 min pos    71,
 dipolmoment           0.000000      0.000000      1.473370 electrons x Angstroem
 Tr[quadrupol]    -95191.244879

 energy correction for charged system         0.000000 eV
 dipol+quadrupol energy correction           -0.017650 eV
 added-field ion interaction        185.866282 eV  (added to PSCEN)


 Free energy of the ion-electron system (eV)
  ---------------------------------------------------
  alpha Z        PSCENC =       676.01158524
  Ewald energy   TEWEN  =    309373.60598938
  -Hartree energ DENC   =   -371601.65873349
  -exchange      EXHF   =         0.00000000
  -V(xc)+E(xc)   XCENC  =      3777.49059615
  PAW double counting   =     59955.48764796   -58973.29898038
  entropy T*S    EENTRO =        -0.00000000
  eigenvalues    EBANDS =    -17296.77228915
  atomic energy  EATOM  =     74707.24229009
  Solvation  Ediel_sol  =         0.00000000
  ---------------------------------------------------
  free energy    TOTEN  =       618.10810580 eV

  energy without entropy =      618.10810580  energy(sigma->0) =      618.10810580


--------------------------------------------------------------------------------------------------------




--------------------------------------- Iteration      1(   3)  ---------------------------------------


     EDDAV:  cpu time  353.7910: real time  355.1303
       DOS:  cpu time    0.0031: real time    0.0031
    --------------------------------------------
      LOOP:  cpu time  353.7941: real time  355.1334

 eigenvalue-minimisations  :  8928
 total energy-change (2. order) :-0.2635121E+04  (-0.2625670E+04)
 number of electron    1258.0000000 magnetization 
 augmentation part     1258.0000000 magnetization 

 DIPCOR: dipole corrections for dipol
 direction  3 min pos    71,
 dipolmoment           0.000000      0.000000      1.473370 electrons x Angstroem
 Tr[quadrupol]    -95191.244879

 energy correction for charged system         0.000000 eV
[...]
     11.76710     17.62094     16.89445         0.004611     -0.007963     -0.003554
     10.63645      8.47187     19.95447         0.003547     -0.014100     -0.025074
      1.94841     10.98909     10.92575        -0.051882     -0.146577      0.031254
      9.56504     13.89627     15.43559         0.000463     -0.003990     -0.000816
     19.70678      7.99968     12.57709         0.063910     -0.174643     -0.238530
      0.40009     17.94876     10.58160         0.103935     -0.144508      0.305239
      0.34415      5.14988     10.51358         0.050076      0.036504      0.055408
      0.21637      2.08501     15.38864        -0.009183      0.002217      0.005657
     14.23540     11.91146     16.42096        -0.003207      0.005213     -0.004220
      5.01061      8.62588     13.70262        -0.000882     -0.005198      0.002582
     21.42279     13.69170     13.34099         0.202246      0.223589     -0.644441
     12.18742      2.00159     11.45195         0.155753     -0.051668      0.466735
      9.79246      3.08794     15.84876         0.003860      0.002188     -0.000041
      1.95373      2.52197     10.94102         0.080275     -0.119208      0.051152
     16.43234      0.81267     13.10088         0.063033     -0.090742     -0.332960
     15.56990     16.27355     11.76084        -0.481451      4.557218     -0.224640
     15.21965      9.13359     11.56390         0.044433      0.086561      0.272351
      4.64622     16.53531     12.47363        -0.702301      6.165393     -0.347470
      5.04621      6.64771     16.22885         0.001400     -0.001969      0.005676
     15.75377     14.72467     15.99406         0.004692      0.004171     -0.001261
      5.07066     11.63219     14.47983        -0.000942     -0.002528      0.002833
      8.63383     13.32142     12.34509        -0.411306      0.007356     -0.168131
     18.65791     16.09308     16.01214         0.001956     -0.004059     -0.003273
     20.59610     16.53114     13.76439        -0.008365     -0.003340      0.002812
     13.50735     10.42182     13.76951        -0.002874     -0.003454      0.001474
     13.80804      2.08144     14.12022         0.001035      0.005810     -0.002417
     20.08975      2.75648     13.31200        -0.219022     -0.029299     -0.409963
     19.53646     10.94418     17.36793        -0.000875     -0.002241     -0.004032
      3.13099      6.52942      9.59393        -0.091952     -0.108864      0.046808
     18.51026      5.07285     11.87902        -0.277890      0.101111      0.075297
      9.34523      3.21643     10.64590        -0.131012     -0.306375      0.226693
     20.03451     13.59140     16.03496         0.000868     -0.005004      0.002551
      6.61818     16.94968     14.78199         0.001413      0.000865      0.001563
      0.54021      5.98812     13.50205         0.311986      0.203398     -0.433065
     13.45118     12.60314     11.70944         3.892349     -0.890638     -2.461768
      5.39024     13.63805     12.15046         0.168063     -0.586899      0.004143
     13.88854      5.10940     14.69633         0.002570      0.003637      0.002282
     22.83523      4.93509     16.20068        -0.006164      0.004132      0.003183
     20.81045      0.46044     11.40393         0.029114      0.036401      0.102061
      2.45115      3.54256     13.91860         0.000884      0.002841     -0.001106
      1.12715     13.28354     12.97472        -0.151268     -0.568667     -0.251952
      5.43058      3.73029     15.08218        -0.001314      0.002614     -0.001464
     13.14328      4.67139     10.24864         8.320670     -5.345105     -3.571671
     11.09535     11.35878     16.65697         0.001542      0.004094      0.005203
      6.57742     13.97357     16.07587         0.002615     -0.001784      0.002521
      4.88127     11.65920      9.99509         0.084387     -0.060691      0.019227
     17.32913     12.86615     14.40591         0.003096     -0.003818     -0.000054
     23.09492     17.95218     14.79345         0.001131     -0.001469      0.000039
     16.46059     13.35206     11.67438        -0.726249     -1.369799      0.333833
     18.44179      1.07362     15.50747         0.000864     -0.000260     -0.003190
     10.68290      5.95195     11.00304        -1.138116      0.556853      0.470608
     10.50376     16.98414     15.97377        -0.005601     -0.000450      0.005519
     11.88853      0.76118     15.76139         0.004726     -0.010303     -0.009155
      5.71814      6.71222     11.31648         0.026591     -0.116197     -0.109997
     15.41693      5.98005     12.10687        -0.131418     -0.443403     -0.903467
     10.80116      5.75431     14.21531         0.006945     -0.005741     -0.002055
      7.89661     10.69049     10.72869        -0.111225     -0.068587     -0.042421
     18.78702      8.63186     15.58750        -0.002045      0.002286      0.001149
      1.62029     16.28844     12.91761        -0.316402      6.447763     -0.558450
      4.96103      2.61769     10.04353        -0.065983     -0.042464      0.059359
      1.83153      8.95162     13.29887         0.035844     -0.123613     -0.315201
     13.05344     15.44546     12.76235       -22.329986    -15.866383      4.720357
     16.80032     10.59034     16.39312        -0.004036     -0.002471     -0.004179
      6.71066      3.80730     12.34244        -0.214203      0.006288     -0.780379
      2.06184     11.33585     15.26128        -0.004153      0.001908     -0.001202
      8.26187      0.37164     15.54257         0.000243     -0.000263      0.001482
     11.44824      8.73376     15.44135        -0.003064     -0.006832      0.007335
     11.60584      9.28255     18.79255         0.011261      0.005055     -0.003316
 -----------------------------------------------------------------------------------
    total drift:                               -0.010211      0.235066      0.050545


--------------------------------------------------------------------------------------------------------



  FREE ENERGIE OF THE ION-ELECTRON SYSTEM (eV)
  ---------------------------------------------------
  free  energy   TOTEN  =     -1885.92418389 eV

  energy  without entropy=    -1885.92418389  energy(sigma->0) =    -1885.92418389

 d Force = 0.2216832E-03[ 0.159E-03, 0.284E-03]  d Energy = 0.2883967E-03-0.667E-04
 d Force = 0.3800470E+00[ 0.380E+00, 0.380E+00]  d Ewald  = 0.3800469E+00 0.113E-06


--------------------------------------------------------------------------------------------------------


    POTLOK:  cpu time    3.0421: real time    3.0523


--------------------------------------------------------------------------------------------------------


 NEB: the previous image is higher in energy: F
 NEB: the next image is higher in energy    : F
 NEB: image is at an extrema
 NEB: diff energy (min, max):     0.065033    1.169350

 NEB: Tangent
 ----------------------------------------------
     -0.35372      0.07518     -0.02422
      0.02430      0.15553      0.02992
      0.10459      0.13899      0.03715
     -0.28338      0.08482     -0.01204
      0.00015     -0.00914      0.00250
      0.00000      0.00000      0.00000
      0.00000      0.00000      0.00000
      0.00000      0.00000      0.00000
      0.00000      0.00000      0.00000
      0.00000      0.00000      0.00000
      0.00000      0.00000      0.00000
      0.00063      0.00005     -0.00078
      0.00000      0.00000      0.00000
      0.00369     -0.00241      0.00270
     -0.08564     -0.01890     -0.01568
     -0.00250     -0.00774      0.00459
      0.00315      0.00185     -0.00475
      0.00000      0.00000      0.00000
      0.00000      0.00000      0.00000
      0.00487     -0.00091      0.00046
      0.00000      0.00000      0.00000
      0.00000      0.00000      0.00000
      0.00000      0.00000      0.00000
      0.00000      0.00000      0.00000
      0.00000      0.00000      0.00000
      0.02133     -0.00459     -0.01382
      0.00000      0.00000      0.00000
      0.00000      0.00000      0.00000
      0.00000      0.00000      0.00000
      0.00000      0.00000      0.00000
      0.00000      0.00000      0.00000
      0.00000      0.00000      0.00000
     -0.00481     -0.00775     -0.00569
      0.01695      0.00110     -0.00613
      0.00608     -0.00081     -0.00279
      0.00000      0.00000      0.00000
      0.00000      0.00000      0.00000
      0.00000      0.00000      0.00000
      0.00000      0.00000      0.00000
      0.00000      0.00000      0.00000
      0.00000      0.00000      0.00000
      0.00000      0.00000      0.00000
      0.00000      0.00000      0.00000
      0.00000      0.00000      0.00000
     -0.00089      0.00012      0.00023
      0.00490      0.00053      0.00056
     -0.00126      0.00129     -0.00144
     -0.02366      0.00290     -0.00128
     -0.38072      0.09443     -0.01057
     -0.30978      0.02586     -0.01326
      0.01182      0.18935      0.06899
      0.02607      0.13078      0.00156
     -0.01786      0.14442      0.01264
      0.08231      0.19043      0.06384
     -0.16726     -0.00698     -0.00988
     -0.27456      0.10635     -0.00198
      0.00000      0.00000      0.00000
      0.00000      0.00000      0.00000
      0.00016     -0.00240      0.00108
     -0.00617     -0.01376      0.00075
     -0.00020      0.00218     -0.00175
      0.00000      0.00000      0.00000
      0.00000      0.00000      0.00000
      0.00000      0.00000      0.00000
      0.00000      0.00000      0.00000
      0.00236      0.00014      0.00045
      0.00000      0.00000      0.00000
      0.00000      0.00000      0.00000
      0.00754     -0.01777     -0.00409
      0.00000      0.00000      0.00000
     -0.00059     -0.00338      0.00103
      0.00000      0.00000      0.00000
      0.00000      0.00000      0.00000
      0.00000      0.00000      0.00000
     -0.00277     -0.00590      0.00009
     -0.00056      0.00105     -0.00148
      0.09263      0.01753     -0.06684
      0.00000      0.00000      0.00000
      0.00000      0.00000      0.00000
      0.00000      0.00000      0.00000
      0.00000      0.00000      0.00000
      0.00000      0.00000      0.00000
     -0.00049     -0.00048      0.00068
      0.00274     -0.01284     -0.00123
     -0.01583     -0.02099     -0.01171
     -0.00135     -0.00120      0.00043
      0.00000      0.00000      0.00000
      0.00000      0.00000      0.00000
      0.00000      0.00000      0.00000
     -0.01818      0.00521      0.00035
      0.00000      0.00000      0.00000
      0.00000      0.00000      0.00000
      0.00000      0.00000      0.00000
      0.00000      0.00000      0.00000
      0.00000      0.00000      0.00000
     -0.00005     -0.00044      0.00015
      0.00557      0.00160      0.00479
     -0.00237     -0.01518     -0.00151
      0.00000      0.00000      0.00000
      0.00000      0.00000      0.00000
      0.00719     -0.01251      0.00132
      0.00000      0.00000      0.00000
      0.00007     -0.00761      0.00909
      0.00555     -0.02049      0.00708
      0.00000      0.00000      0.00000
      0.00140     -0.00549      0.00209
     -0.00146      0.00092     -0.00124
     -0.00406     -0.00049     -0.00024
      0.00027     -0.00001      0.00164
      0.00000      0.00000      0.00000
     -0.00011     -0.00548     -0.01574
      0.00124     -0.00460      0.00296
      0.00000      0.00000      0.00000
      0.00000      0.00000      0.00000
      0.00000      0.00000      0.00000
     -0.00530     -0.01025     -0.00048
      0.00048     -0.00043     -0.00010
      0.00000      0.00000      0.00000
     -0.00110     -0.02185     -0.00406
     -0.00088      0.00057      0.00226
      0.00000      0.00000      0.00000
      0.00000      0.00000      0.00000
      0.00000      0.00000      0.00000
      0.06204     -0.15683      0.02210
      0.00000      0.00000      0.00000
      0.00000      0.00000      0.00000
     -0.00756     -0.01527      0.00336
      0.00000      0.00000      0.00000
     -0.04468     -0.05038      0.05971
      0.00000      0.00000      0.00000
     -0.00006     -0.00548      0.00390
      0.00000      0.00000      0.00000
     -0.04278     -0.01044     -0.07614
      0.00000      0.00000      0.00000
     -0.00019     -0.00204     -0.00190
      0.00000      0.00000      0.00000
     -0.00287     -0.00038      0.00299
     -0.00301      0.00256      0.00226
      0.00000      0.00000      0.00000
     -0.00631     -0.00499      0.00230
      0.00000      0.00000      0.00000
     -0.02053     -0.00010     -0.00382
      0.00000      0.00000      0.00000
      0.00000      0.00000      0.00000
      0.00121      0.00102     -0.00082
      0.00000      0.00000      0.00000
      0.00000      0.00000      0.00000
     -0.00119     -0.00751     -0.00228
      0.00000      0.00000      0.00000
      0.00000      0.00000      0.00000
      0.00000      0.00000      0.00000
      0.00000      0.00000      0.00000
      0.00204     -0.00161     -0.00044
      0.00048     -0.00176     -0.00222
      0.00000      0.00000      0.00000
      0.00000      0.00000      0.00000
      0.00000      0.00000      0.00000
      0.00454     -0.00422      0.00005
      0.00000      0.00000      0.00000
      0.00005     -0.00006      0.00020
      0.00500     -0.01606      0.00166
     -0.00901     -0.00105      0.00125
      0.00000      0.00000      0.00000
     -0.00152     -0.00107      0.00041
      0.00000      0.00000      0.00000
     -0.00755     -0.02892      0.00791
      0.00000      0.00000      0.00000
      0.00034      0.00009      0.00079
     -0.00734      0.00007     -0.00078
      0.00000      0.00000      0.00000
      0.00269     -0.00214     -0.00062
      0.00000      0.00000      0.00000
      0.00084     -0.00000      0.00000
      0.00000      0.00000      0.00000
     -0.02729     -0.00334     -0.00021
      0.00000      0.00000      0.00000
      0.00000      0.00000      0.00000
     -0.00102     -0.00317     -0.00217
      0.00000      0.00000      0.00000
      0.00000      0.00000      0.00000
      0.00000      0.00000      0.00000
      0.00000      0.00000      0.00000
     -0.00065     -0.00016     -0.00148
     -0.00076     -0.00928      0.00161
      0.00000      0.00000      0.00000
      0.00000      0.00000      0.00000
      0.00000      0.00000      0.00000
      0.00000      0.00000      0.00000
      0.00000      0.00000      0.00000
      0.00340     -0.00100      0.00014
      0.00000      0.00000      0.00000
     -0.02384      0.00140      0.00120
      0.00000      0.00000      0.00000
      0.00000      0.00000      0.00000
      0.00000      0.00000      0.00000
      0.00000      0.00000      0.00000
      0.00000      0.00000      0.00000
      0.00000      0.00000      0.00000
     -0.00299     -0.00479     -0.00170
     -0.00889     -0.02057      0.00550
      0.00205     -0.01909     -0.00215
     -0.01660      0.00132      0.00571
      0.00828     -0.03334      0.00680
     -0.00055     -0.00695      0.00256
     -0.00158     -0.00351      0.00254
     -0.01047     -0.01226     -0.00577
     -0.00056      0.00039     -0.00136
      0.00262     -0.00641      0.00366
      0.00841     -0.02161     -0.00799
      0.27269     -0.07799      0.04602
      0.00000      0.00000      0.00000
     -0.00536     -0.03373      0.01663
      0.00000      0.00000      0.00000
      0.00000      0.00000      0.00000
      0.00000      0.00000      0.00000
      0.00163      0.00002     -0.00130
     -0.01046     -0.01628      0.00368
      0.00000     -0.00040     -0.00014
      0.00000      0.00000      0.00000
      0.00000      0.00000      0.00000
      0.00456     -0.01394     -0.00124
      0.00000      0.00000      0.00000
      0.00000      0.00000      0.00000
      0.00000      0.00000      0.00000
      0.00000      0.00000      0.00000
      0.00000      0.00000      0.00000
     -0.00094     -0.00042     -0.00093
     -0.00527     -0.01258     -0.00059
     -0.00686     -0.00121      0.00030
      0.00000      0.00000      0.00000
     -0.00417     -0.00604      0.00094
     -0.00012     -0.00007      0.00035
     -0.01195     -0.00966     -0.01052
     -0.00083     -0.00388      0.00089
      0.00000      0.00000      0.00000
     -0.00030     -0.00340     -0.00009
      0.00000      0.00000      0.00000
      0.00000      0.00000      0.00000
      0.00000      0.00000      0.00000
     -0.00087     -0.00274      0.00064
     -0.00717     -0.00555      0.00377
      0.00000      0.00000      0.00000
      0.00000      0.00000      0.00000
      0.00000      0.00000      0.00000
     -0.00377     -0.00572     -0.00667
      0.00322     -0.00051      0.00068
      0.00000      0.00000      0.00000
      0.00122      0.00006     -0.00021
      0.00000      0.00000      0.00000
      0.00099     -0.00024     -0.00010
      0.00000      0.00000      0.00000
     -0.01326     -0.06169      0.02738
     -0.01835      0.00101      0.00349
      0.00000      0.00000      0.00000
     -0.00070     -0.00513     -0.00014
     -0.00058      0.00102     -0.00147
      0.00000      0.00000      0.00000
     -0.00055     -0.00333      0.00116
      0.00000      0.00000      0.00000
      0.00520     -0.02694     -0.00348
     -0.00021     -0.01933     -0.00567
      0.00000      0.00000      0.00000
      0.00000      0.00000      0.00000
     -0.00151     -0.00757     -0.00145
      0.00000      0.00000      0.00000
      0.00053     -0.00262     -0.00056
      0.00000      0.00000      0.00000
      0.00000      0.00000      0.00000
      0.00000      0.00000      0.00000
      0.00000      0.00000      0.00000
     -0.00152     -0.00485      0.00220
      0.00000      0.00000      0.00000
     -0.00634     -0.00029      0.00052
      0.00407     -0.01549      0.00047
      0.00294     -0.00718     -0.02808
      0.23324     -0.05515      0.03085

 NEB: forces: par spring, perp REAL, dneb     5.047557    0.127431    0.000000
 NEB: distance to prev, next image, angle between     1.051774    2.061285  106.224952
 NEB: projections on to tangent (spring, REAL)     5.047557    0.010399

 stress matrix after NEB project (eV)
    -32.88486      0.37247      0.21437
      0.37247    -33.56754     -0.15154
      0.21437     -0.15154    -25.46940
  FORCES: max atom, RMS     0.033230    0.007696
  FORCE total and by dimension    0.127855    0.028055
  Stress total and by dimension   53.453713   33.567535
 OPT: skip step - force has converged


--------------------------------------------------------------------------------------------------------


  
 reached required accuracy - stopping structural energy minimisation
 writing wavefunctions
     LOOP+:  cpu time  567.3955: real time  570.0361
    4ORBIT:  cpu time    0.0000: real time    0.0000

 total amount of memory used by VASP MPI-rank0  2543071. kBytes
=======================================================================

   base      :      30000. kBytes
   nonlr-proj:      16925. kBytes
   fftplans  :      79581. kBytes
   grid      :     173670. kBytes
   one-center:       1073. kBytes
   wavefun   :    2241822. kBytes

  
  
 General timing and accounting informations for this job:
 ========================================================
  
                  Total CPU time used (sec):     5838.790
                            User time (sec):     5829.504
                          System time (sec):        9.285
                         Elapsed time (sec):     5885.069
  
                   Maximum memory used (kb):     2827588.
                   Average memory used (kb):           0.
  
                          Minor page faults:       865887
                          Major page faults:          154
                 Voluntary context switches:         4076
