 vasp.5.4.4.18Apr17-6-g9f103f2a35 (build Oct 20 2021 08:33:53) complex           
 executed on             LinuxGNU date 2024.05.04  15:22:15
 running on   32 total cores
 distrk:  each k-point on   32 cores,    1 groups
 distr:  one band on NCORES_PER_BAND=   4 cores,    8 groups


--------------------------------------------------------------------------------------------------------


 INCAR:
 POTCAR:    PAW_PBE C 08Apr2002                   
 POTCAR:    PAW_PBE H 15Jun2001                   
 POTCAR:    PAW_PBE O 08Apr2002                   
 POTCAR:    PAW_PBE Si 05Jan2001                  
 POTCAR:    PAW_PBE W 08Apr2002                   
 POTCAR:    PAW_PBE C 08Apr2002                   
   VRHFIN =C: s2p2                                                              
   LEXCH  = PE                                                                  
   EATOM  =   147.1560 eV,   10.8157 Ry                                         
                                                                                
   TITEL  = PAW_PBE C 08Apr2002                                                 
   LULTRA =        F    use ultrasoft PP ?                                      
   IUNSCR =        1    unscreen: 0-lin 1-nonlin 2-no                           
   RPACOR =    1.200    partial core radius                                     
   POMASS =   12.011; ZVAL   =    4.000    mass and valenz                      
   RCORE  =    1.500    outmost cutoff radius                                   
   RWIGS  =    1.630; RWIGS  =    0.863    wigner-seitz radius (au A)           
   ENMAX  =  400.000; ENMIN  =  300.000 eV                                      
   ICORE  =        2    local potential                                         
   LCOR   =        T    correct aug charges                                     
   LPAW   =        T    paw PP                                                  
   EAUG   =  644.873                                                            
   DEXC   =    0.000                                                            
   RMAX   =    1.529    core radius for proj-oper                               
   RAUG   =    1.300    factor for augmentation sphere                          
   RDEP   =    1.501    radius for radial grids                                 
   RDEPT  =    1.300    core radius for aug-charge                              
                                                                                
   Atomic configuration                                                         
    4 entries                                                                   
     n  l   j            E        occ.                                          
     1  0  0.50      -273.3789   2.0000                                         
     2  0  0.50       -13.7508   2.0000                                         
     2  1  0.50        -5.2854   2.0000                                         
     3  2  1.50        -5.4423   0.0000                                         
   Description                                                                  
     l       E           TYP  RCUT    TYP  RCUT                                 
     0    -13.7508458     23  1.200                                             
     0     -8.2022199     23  1.200                                             
     1     -5.2854383     23  1.500                                             
     1     34.0145650     23  1.500                                             
     2     -5.4423304      7  1.500                                             
  local pseudopotential read in
  partial core-charges read in
  partial kinetic energy density read in
  atomic valenz-charges read in
  non local Contribution for L=           0  read in
    real space projection operators read in
  non local Contribution for L=           0  read in
    real space projection operators read in
  non local Contribution for L=           1  read in
    real space projection operators read in
  non local Contribution for L=           1  read in
    real space projection operators read in
    PAW grid and wavefunctions read in

   number of l-projection  operators is LMAX  =           4
   number of lm-projection operators is LMMAX =           8

 POTCAR:    PAW_PBE H 15Jun2001                   
   VRHFIN =H: ultrasoft test                                                    
   LEXCH  = PE                                                                  
   EATOM  =    12.4884 eV,    0.9179 Ry                                         
                                                                                
   TITEL  = PAW_PBE H 15Jun2001                                                 
   LULTRA =        F    use ultrasoft PP ?                                      
   IUNSCR =        0    unscreen: 0-lin 1-nonlin 2-no                           
   RPACOR =    0.000    partial core radius                                     
   POMASS =    1.000; ZVAL   =    1.000    mass and valenz                      
   RCORE  =    1.100    outmost cutoff radius                                   
   RWIGS  =    0.700; RWIGS  =    0.370    wigner-seitz radius (au A)           
   ENMAX  =  250.000; ENMIN  =  200.000 eV                                      
   RCLOC  =    0.701    cutoff for local pot                                    
   LCOR   =        T    correct aug charges                                     
   LPAW   =        T    paw PP                                                  
   EAUG   =  400.000                                                            
   RMAX   =    1.123    core radius for proj-oper                               
   RAUG   =    1.200    factor for augmentation sphere                          
   RDEP   =    1.112    radius for radial grids                                 
   RDEPT  =    0.926    core radius for aug-charge                              
                                                                                
   Atomic configuration                                                         
    2 entries                                                                   
     n  l   j            E        occ.                                          
     1  0  0.50        -6.4927   1.0000                                         
     2  1  0.50        -3.4015   0.0000                                         
   Description                                                                  
     l       E           TYP  RCUT    TYP  RCUT                                 
     0     -6.4927494     23  1.100                                             
     0      6.8029130     23  1.100                                             
     1     -4.0817478     23  1.100                                             
  local pseudopotential read in
  atomic valenz-charges read in
  non local Contribution for L=           0  read in
    real space projection operators read in
  non local Contribution for L=           0  read in
    real space projection operators read in
  non local Contribution for L=           1  read in
    real space projection operators read in
    PAW grid and wavefunctions read in

   number of l-projection  operators is LMAX  =           3
   number of lm-projection operators is LMMAX =           5

 POTCAR:    PAW_PBE O 08Apr2002                   
   VRHFIN =O: s2p4                                                              
   LEXCH  = PE                                                                  
   EATOM  =   432.3788 eV,   31.7789 Ry                                         
                                                                                
   TITEL  = PAW_PBE O 08Apr2002                                                 
   LULTRA =        F    use ultrasoft PP ?                                      
   IUNSCR =        1    unscreen: 0-lin 1-nonlin 2-no                           
   RPACOR =    1.200    partial core radius                                     
   POMASS =   16.000; ZVAL   =    6.000    mass and valenz                      
   RCORE  =    1.520    outmost cutoff radius                                   
   RWIGS  =    1.550; RWIGS  =    0.820    wigner-seitz radius (au A)           
   ENMAX  =  400.000; ENMIN  =  300.000 eV                                      
   ICORE  =        2    local potential                                         
   LCOR   =        T    correct aug charges                                     
   LPAW   =        T    paw PP                                                  
   EAUG   =  605.392                                                            
   DEXC   =    0.000                                                            
   RMAX   =    1.553    core radius for proj-oper                               
   RAUG   =    1.300    factor for augmentation sphere                          
   RDEP   =    1.550    radius for radial grids                                 
   RDEPT  =    1.329    core radius for aug-charge                              
                                                                                
   Atomic configuration                                                         
    4 entries                                                                   
     n  l   j            E        occ.                                          
     1  0  0.50      -514.6923   2.0000                                         
     2  0  0.50       -23.9615   2.0000                                         
     2  1  0.50        -9.0305   4.0000                                         
     3  2  1.50        -9.5241   0.0000                                         
   Description                                                                  
     l       E           TYP  RCUT    TYP  RCUT                                 
     0    -23.9615318     23  1.200                                             
     0     -9.5240782     23  1.200                                             
     1     -9.0304911     23  1.520                                             
     1      8.1634956     23  1.520                                             
     2     -9.5240782      7  1.500                                             
  local pseudopotential read in
  partial core-charges read in
  partial kinetic energy density read in
  kinetic energy density of atom read in
  atomic valenz-charges read in
  non local Contribution for L=           0  read in
    real space projection operators read in
  non local Contribution for L=           0  read in
    real space projection operators read in
  non local Contribution for L=           1  read in
    real space projection operators read in
  non local Contribution for L=           1  read in
    real space projection operators read in
    PAW grid and wavefunctions read in

   number of l-projection  operators is LMAX  =           4
   number of lm-projection operators is LMMAX =           8

 POTCAR:    PAW_PBE Si 05Jan2001                  
   VRHFIN =Si: s2p2                                                             
   LEXCH  = PE                                                                  
   EATOM  =   103.0669 eV,    7.5752 Ry                                         
                                                                                
   TITEL  = PAW_PBE Si 05Jan2001                                                
   LULTRA =        F    use ultrasoft PP ?                                      
   IUNSCR =        1    unscreen: 0-lin 1-nonlin 2-no                           
   RPACOR =    1.500    partial core radius                                     
   POMASS =   28.085; ZVAL   =    4.000    mass and valenz                      
   RCORE  =    1.900    outmost cutoff radius                                   
   RWIGS  =    2.480; RWIGS  =    1.312    wigner-seitz radius (au A)           
   ENMAX  =  245.345; ENMIN  =  184.009 eV                                      
   ICORE  =        2    local potential                                         
   LCOR   =        T    correct aug charges                                     
   LPAW   =        T    paw PP                                                  
   EAUG   =  322.069                                                            
   DEXC   =    0.000                                                            
   RMAX   =    1.950    core radius for proj-oper                               
   RAUG   =    1.300    factor for augmentation sphere                          
   RDEP   =    1.993    radius for radial grids                                 
   RDEPT  =    1.837    core radius for aug-charge                              
                                                                                
   Atomic configuration                                                         
    6 entries                                                                   
     n  l   j            E        occ.                                          
     1  0  0.50     -1785.8828   2.0000                                         
     2  0  0.50      -139.4969   2.0000                                         
     2  1  1.50       -95.5546   6.0000                                         
     3  0  0.50       -10.8127   2.0000                                         
     3  1  0.50        -4.0811   2.0000                                         
     3  2  1.50        -4.0817   0.0000                                         
   Description                                                                  
     l       E           TYP  RCUT    TYP  RCUT                                 
     0    -10.8127223     23  1.900                                             
     0     -7.6451159     23  1.900                                             
     1     -4.0811372     23  1.900                                             
     1      2.4879257     23  1.900                                             
     2     -4.0817478      7  1.900                                             
  local pseudopotential read in
  partial core-charges read in
  partial kinetic energy density read in
  atomic valenz-charges read in
  non local Contribution for L=           0  read in
    real space projection operators read in
  non local Contribution for L=           0  read in
    real space projection operators read in
  non local Contribution for L=           1  read in
    real space projection operators read in
  non local Contribution for L=           1  read in
    real space projection operators read in
    PAW grid and wavefunctions read in

   number of l-projection  operators is LMAX  =           4
   number of lm-projection operators is LMMAX =           8

 POTCAR:    PAW_PBE W 08Apr2002                   
   VRHFIN =W : 6s5d                                                             
   LEXCH  = PE                                                                  
   EATOM  =   204.6103 eV,   15.0384 Ry                                         
                                                                                
   TITEL  = PAW_PBE W 08Apr2002                                                 
   LULTRA =        F    use ultrasoft PP ?                                      
   IUNSCR =        1    unscreen: 0-lin 1-nonlin 2-no                           
   RPACOR =    2.330    partial core radius                                     
   POMASS =  183.850; ZVAL   =    6.000    mass and valenz                      
   RCORE  =    2.750    outmost cutoff radius                                   
   RWIGS  =    2.750; RWIGS  =    1.455    wigner-seitz radius (au A)           
   ENMAX  =  223.057; ENMIN  =  167.293 eV                                      
   RCLOC  =    2.147    cutoff for local pot                                    
   LCOR   =        T    correct aug charges                                     
   LPAW   =        T    paw PP                                                  
   EAUG   =  373.438                                                            
   DEXC   =    0.000                                                            
   RMAX   =    2.801    core radius for proj-oper                               
   RAUG   =    1.300    factor for augmentation sphere                          
   RDEP   =    2.886    radius for radial grids                                 
   RDEPT  =    2.230    core radius for aug-charge                              
                                                                                
   Atomic configuration                                                         
   16 entries                                                                   
     n  l   j            E        occ.                                          
     1  0  0.50    -69465.5836   2.0000                                         
     2  0  0.50    -11986.2642   2.0000                                         
     2  1  1.50    -10479.8616   6.0000                                         
     3  0  0.50     -2759.0758   2.0000                                         
     3  1  1.50     -2313.1857   6.0000                                         
     3  2  2.50     -1801.1185  10.0000                                         
     4  0  0.50      -567.6791   2.0000                                         
     4  1  1.50      -421.4694   6.0000                                         
     4  2  2.50      -236.3473  10.0000                                         
     4  3  3.50       -31.2666  14.0000                                         
     5  0  0.50       -77.1085   2.0000                                         
     5  1  1.50       -41.3856   6.0000                                         
     5  2  2.50        -3.3185   5.0000                                         
     6  0  0.50        -5.1438   1.0000                                         
     6  1  0.50        -3.8096   0.0000                                         
     5  3  2.50        -1.3606   0.0000                                         
   Description                                                                  
     l       E           TYP  RCUT    TYP  RCUT                                 
     2     -3.3185288     23  2.500                                             
     2     -1.5965414     23  2.500                                             
     0     -5.1438054     23  2.500                                             
     0      4.9117504     23  2.500                                             
     1      2.7211652     23  2.750                                             
     1     27.2116520     23  2.750                                             
  local pseudopotential read in
  partial core-charges read in
  partial kinetic energy density read in
  atomic valenz-charges read in
  non local Contribution for L=           2  read in
    real space projection operators read in
  non local Contribution for L=           2  read in
    real space projection operators read in
  non local Contribution for L=           0  read in
    real space projection operators read in
  non local Contribution for L=           0  read in
    real space projection operators read in
  non local Contribution for L=           1  read in
    real space projection operators read in
  non local Contribution for L=           1  read in
    real space projection operators read in
    PAW grid and wavefunctions read in

   number of l-projection  operators is LMAX  =           6
   number of lm-projection operators is LMMAX =          18

 Optimization of the real space projectors (new method)

 maximal supplied QI-value         = 25.13
 optimisation between [QCUT,QGAM] = [ 11.31, 22.87] = [ 35.82,146.48] Ry 
 Optimized for a Real-space Cutoff    1.00 Angstroem

   l    n(q)    QCUT    max X(q) W(low)/X(q) W(high)/X(q)  e(spline) 
   0      7    11.310   115.676    0.43E-03    0.13E-02    0.19E-06
   0      7    11.310    87.132    0.43E-03    0.13E-02    0.18E-06
   1      6    11.310     4.429    0.42E-03    0.74E-03    0.11E-06
   1      6    11.310     2.733    0.34E-03    0.55E-03    0.92E-07
 Optimization of the real space projectors (new method)

 maximal supplied QI-value         = 34.20
 optimisation between [QCUT,QGAM] = [ 11.29, 22.57] = [ 35.68,142.71] Ry 
 Optimized for a Real-space Cutoff    1.16 Angstroem

   l    n(q)    QCUT    max X(q) W(low)/X(q) W(high)/X(q)  e(spline) 
   0      8    11.287    19.460    0.40E-03    0.73E-03    0.16E-06
   0      8    11.287    12.209    0.38E-03    0.70E-03    0.15E-06
   1      7    11.287     4.655    0.22E-03    0.25E-04    0.22E-06
 Optimization of the real space projectors (new method)

 maximal supplied QI-value         = 24.76
 optimisation between [QCUT,QGAM] = [ 11.39, 22.77] = [ 36.31,145.25] Ry 
 Optimized for a Real-space Cutoff    1.00 Angstroem

   l    n(q)    QCUT    max X(q) W(low)/X(q) W(high)/X(q)  e(spline) 
   0      7    11.387    20.381    0.39E-03    0.13E-02    0.15E-06
   0      7    11.387    15.268    0.42E-03    0.14E-02    0.17E-06
   1      6    11.387     5.964    0.41E-03    0.11E-02    0.17E-06
   1      6    11.387     5.382    0.39E-03    0.87E-03    0.15E-06
 Optimization of the real space projectors (new method)

 maximal supplied QI-value         = 19.84
 optimisation between [QCUT,QGAM] = [ 11.31, 22.82] = [ 35.82,145.81] Ry 
 Optimized for a Real-space Cutoff    1.16 Angstroem

   l    n(q)    QCUT    max X(q) W(low)/X(q) W(high)/X(q)  e(spline) 
   0      8    11.310   159.560    0.27E-03    0.30E-03    0.39E-07
   0      8    11.310   115.863    0.27E-03    0.30E-03    0.38E-07
   1      7    11.310    88.339    0.28E-03    0.28E-03    0.77E-07
   1      7    11.310    48.592    0.27E-03    0.27E-03    0.74E-07
 Optimization of the real space projectors (new method)

 maximal supplied QI-value         = 13.61
 optimisation between [QCUT,QGAM] = [ 11.43, 22.86] = [ 36.58,146.31] Ry 
 Optimized for a Real-space Cutoff    1.56 Angstroem

   l    n(q)    QCUT    max X(q) W(low)/X(q) W(high)/X(q)  e(spline) 
   2     10    11.429   130.855    0.22E-03    0.64E-03    0.11E-05
   2     10    11.429   114.007    0.22E-03    0.64E-03    0.11E-05
   0     11    11.429    84.709    0.39E-04    0.67E-04    0.23E-06
   0     11    11.429    49.163    0.35E-04    0.62E-04    0.21E-06
   1     10    11.429    15.765    0.84E-04    0.15E-03    0.24E-06
   1     10    11.429    10.638    0.58E-04    0.12E-03    0.19E-06

 ----------------------------------------------------------------------------- 
|                                                                             |
|  ADVICE TO THIS USER RUNNING 'VASP/VAMP'   (HEAR YOUR MASTER'S VOICE ...):  |
|                                                                             |
|      You enforced a specific xc-type in the INCAR file,                     |
|      a different type was found on the POTCAR file                          |
|          I HOPE YOU KNOW, WHAT YOU ARE  DOING                               |
|                                                                             |
 ----------------------------------------------------------------------------- 

  PAW_PBE C 08Apr2002                   :
 energy of atom  1       EATOM= -147.1560
 kinetic energy error for atom=    0.0076 (will be added to EATOM!!)
  PAW_PBE H 15Jun2001                   :
 energy of atom  2       EATOM=  -12.4884
 kinetic energy error for atom=    0.0020 (will be added to EATOM!!)
  PAW_PBE O 08Apr2002                   :
 energy of atom  3       EATOM= -432.3788
 kinetic energy error for atom=    0.0224 (will be added to EATOM!!)
  PAW_PBE Si 05Jan2001                  :
 energy of atom  4       EATOM= -103.0669
 kinetic energy error for atom=    0.0006 (will be added to EATOM!!)
  PAW_PBE W 08Apr2002                   :
 energy of atom  5       EATOM= -204.6103
 kinetic energy error for atom=    0.0017 (will be added to EATOM!!)


 POSCAR:  C  H  O Si  W                          
  positions in direct lattice
  velocities in cartesian coordinates
 exchange correlation table for  LEXCH =        9
   RHO(1)=    0.500       N(1)  =     2000
   RHO(2)=  100.500       N(2)  =     4000

 VTST: version 3.2, (02/03/18)

 CHAIN: initializing optimizer
 
 OPT: Using VASP QUASI-newton optimizer
 CHAIN: Read ICHAIN            0

 POSCAR:  C  H  O Si  W                          
  positions in direct lattice
  velocities in cartesian coordinates



--------------------------------------------------------------------------------------------------------


 ion  position               nearest neighbor table
   1  0.423  0.521  0.754-  50 1.10  51 1.10   2 1.53 279 2.17
   2  0.431  0.444  0.776-  52 1.10   1 1.53   4 1.54   3 1.55 279 2.75
   3  0.452  0.408  0.727-  53 1.11   5 1.53   2 1.55 279 2.17
   4  0.379  0.409  0.802-  54 1.10  56 1.10  55 1.10   2 1.54
   5  0.492  0.341  0.730-  57 1.10  58 1.10  59 1.11   3 1.53
   6  0.762  0.103  0.652- 134 0.97
   7  0.926  0.279  0.356-  82 0.98
   8  0.793  0.207  0.373- 117 0.97
   9  0.975  0.944  0.325- 126 0.97
  10  0.626  0.963  0.375- 128 0.98
  11  0.821  0.995  0.369- 146 0.97
  12  0.750  0.141  0.458- 184 0.98
  13  0.915  0.249  0.510- 189 0.97
  14  0.583  0.304  0.306- 194 0.97
  15  0.893  0.335  0.616- 100 0.98
  16  0.621  0.364  0.607- 145 0.97
  17  0.594  0.871  0.578- 187 0.99
  18  0.033  0.337  0.654- 193 0.97
  19  0.935  0.420  0.454- 182 0.98
  20  0.746  0.530  0.422-  96 1.00
  21  0.807  0.389  0.639- 174 0.97
  22  0.591  0.569  0.378- 108 0.99
  23  0.718  0.646  0.383- 131 0.99
  24  0.841  0.542  0.420- 137 0.98
  25  0.005  0.604  0.358- 142 0.97
  26  0.828  0.712  0.468- 183 0.99
  27  0.873  0.596  0.723-  62 0.97
  28  0.520  0.986  0.422- 144 0.99
  29  0.223  0.980  0.393- 185 1.00
  30  0.216  0.238  0.319- 200 0.99
  31  0.158  0.330  0.279- 191 0.97
  32  0.342  0.156  0.331- 192 0.98
  33  0.223  0.046  0.323- 199 0.97
  34  0.511  0.827  0.547- 202 0.97
  35  0.369  0.235  0.648-  87 0.97
  36  0.243  0.094  0.599- 138 0.98
  37  0.315  0.487  0.442-  61 0.99
  38  0.409  0.439  0.406- 150 0.98
  39  0.398  0.793  0.389- 188 0.97
  40  0.244  0.655  0.294- 196 0.97
  41  0.312  0.418  0.369- 197 0.98
  42  0.405  0.584  0.339- 198 0.97
  43  0.139  0.488  0.352- 190 0.98
  44  0.593  0.698  0.352-  91 0.97
  45  0.469  0.861  0.444- 201 0.99
  46  0.122  0.327  0.614- 110 0.97
  47  0.073  0.664  0.646- 141 0.97
  48  0.241  0.393  0.683- 186 0.97
  49  0.249  0.816  0.670- 195 0.97
  50  0.430  0.570  0.778-   1 1.10
  51  0.381  0.527  0.735-   1 1.10
  52  0.467  0.445  0.802-   2 1.10
  53  0.415  0.397  0.703-   3 1.11
  54  0.367  0.442  0.834-   4 1.10
  55  0.343  0.407  0.776-   4 1.10
  56  0.388  0.352  0.814-   4 1.10
  57  0.505  0.322  0.692-   5 1.10
  58  0.530  0.353  0.752-   5 1.10
  59  0.469  0.294  0.748-   5 1.11
  60  0.369  0.648  0.439- 233 1.66 268 1.68
  61  0.347  0.504  0.420-  37 0.99 268 1.67
  62  0.862  0.565  0.696-  27 0.97 239 1.64
  63  0.349  0.961  0.531- 244 1.68 277 1.69
  64  0.033  0.932  0.529- 259 1.63 270 1.66
  65  0.636  0.079  0.489- 237 1.60 226 1.65
  66  0.069  0.052  0.395- 225 1.64 217 1.65
  67  0.452  0.130  0.421- 242 1.65 223 1.65
  68  0.806  0.214  0.483- 241 1.67 238 1.69
  69  0.974  0.182  0.599- 219 1.63 249 1.65
  70  0.275  0.299  0.449- 265 1.65 275 1.66
  71  0.556  0.775  0.442- 246 1.51 273 1.66
  72  0.391  0.974  0.620- 263 1.65 277 1.66
  73  0.178  0.350  0.405- 265 1.66 240 1.67
  74  0.867  0.685  0.638- 243 1.64 239 1.64
  75  0.866  0.967  0.467- 235 1.60 250 1.65
  76  0.301  0.761  0.458- 233 1.65 247 1.67
  77  0.422  0.261  0.380- 242 1.67 262 1.67
  78  0.811  0.465  0.520- 269 1.63 216 1.64
  79  0.984  0.072  0.521- 259 1.68 219 1.69
  80  0.505  0.467  0.633- 278 1.66 279 1.96
  81  0.035  0.920  0.429- 270 1.64 217 1.65
  82  0.963  0.303  0.351-   7 0.98 218 1.65
  83  0.070  0.336  0.376- 218 1.64 240 1.65
  84  0.208  0.729  0.395- 247 1.66 257 1.67
  85  0.039  0.419  0.499- 272 1.64 245 1.65
  86  0.240  0.287  0.588- 253 1.63 230 1.63
  87  0.399  0.197  0.646-  35 0.97 224 1.64
  88  0.454  0.566  0.579- 278 1.68 255 1.69
  89  0.910  0.749  0.557- 243 1.64 222 1.65
  90  0.869  0.108  0.442- 250 1.64 238 1.65
  91  0.573  0.667  0.376-  44 0.97 246 1.68
  92  0.142  0.159  0.376- 271 1.65 225 1.65
  93  0.351  0.766  0.606- 215 1.62 256 1.64
  94  0.911  0.845  0.483- 235 1.62 222 1.66
  95  0.061  0.537  0.442- 272 1.66 214 1.67
  96  0.708  0.555  0.420-  20 1.00 228 1.67
  97  0.075  0.817  0.483- 270 1.50 252 1.65
  98  0.700  0.828  0.433- 227 1.53 260 1.65
  99  0.730  0.049  0.543- 226 1.64 261 1.64
 100  0.920  0.302  0.632-  15 0.98 249 1.63
 101  0.736  0.852  0.613- 234 1.66 231 1.68
 102  0.625  0.527  0.486- 236 1.59 228 1.68
 103  0.557  0.630  0.467- 246 1.52 236 1.64
 104  0.425  0.248  0.556- 224 1.68 267 1.68
 105  0.978  0.728  0.477- 252 1.65 222 1.65
 106  0.655  0.594  0.633- 274 1.64 220 1.67
 107  0.397  0.748  0.515- 233 1.65 215 1.65
 108  0.603  0.518  0.386-  22 0.99 228 1.65
 109  0.721  0.630  0.557- 258 1.62 274 1.65
 110  0.149  0.366  0.622-  46 0.97 230 1.64
 111  0.066  0.548  0.542- 272 1.63 276 1.64
 112  0.818  0.885  0.536- 235 1.65 234 1.67
 113  0.828  0.355  0.452- 241 1.65 216 1.65
 114  0.528  0.296  0.532- 267 1.62 248 1.63
 115  0.738  0.499  0.596- 274 1.66 269 1.66
 116  0.557  0.172  0.395- 254 1.59 223 1.64
 117  0.806  0.256  0.383-   8 0.97 241 1.67
 118  0.237  0.953  0.508- 244 1.58 229 1.67
 119  0.693  0.776  0.542- 258 1.63 231 1.64
 120  0.923  0.950  0.553- 259 1.65 235 1.65
 121  0.526  0.318  0.399- 254 1.45 262 1.66
 122  0.467  0.993  0.547- 263 1.69 264 1.69
 123  0.838  0.095  0.540- 238 1.65 261 1.66
 124  0.538  0.116  0.486- 237 1.60 223 1.67
 125  0.350  0.187  0.440- 275 1.63 242 1.65
 126  0.012  0.962  0.335-   9 0.97 217 1.65
 127  0.453  0.599  0.674- 255 1.64 279 1.96
 128  0.655  0.925  0.379-  10 0.98 227 1.66
 129  0.076  0.686  0.436- 214 1.65 252 1.66
 130  0.455  0.406  0.553- 278 1.68 267 1.70
 131  0.719  0.700  0.380-  23 0.99 260 1.65
 132  0.453  0.709  0.598- 215 1.62 255 1.63
 133  0.753  0.709  0.476- 258 1.63 260 1.69
 134  0.779  0.121  0.621-   6 0.97 261 1.64
 135  0.993  0.308  0.448- 245 1.66 218 1.68
 136  0.538  0.509  0.536- 278 1.65 236 1.66
 137  0.817  0.499  0.423-  24 0.98 216 1.69
 138  0.237  0.147  0.606-  36 0.98 253 1.62
 139  0.204  0.831  0.471- 229 1.50 247 1.63
 140  0.240  0.559  0.523- 232 1.65 221 1.66
 141  0.061  0.625  0.624-  47 0.97 276 1.63
 142  0.046  0.602  0.354-  25 0.97 214 1.65
 143  0.801  0.979  0.605- 234 1.66 261 1.68
 144  0.538  0.028  0.405-  28 0.99 223 1.66
 145  0.607  0.314  0.604-  16 0.97 248 1.64
 146  0.862  0.004  0.369-  11 0.97 250 1.66
 147  0.095  0.149  0.467- 251 1.62 225 1.65
 148  0.171  0.205  0.531- 251 1.61 253 1.63
 149  0.641  0.704  0.455- 246 1.65 260 1.66
 150  0.437  0.410  0.386-  38 0.98 262 1.66
 151  0.574  0.059  0.571- 264 1.62 237 1.65
 152  0.151  0.593  0.389- 257 1.68 214 1.68
 153  0.268  0.602  0.392- 268 1.65 257 1.67
 154  0.440  0.322  0.470- 267 1.65 262 1.69
 155  0.238  0.159  0.430- 271 1.65 275 1.67
 156  0.073  0.149  0.562- 251 1.64 219 1.64
 157  0.846  0.546  0.599- 269 1.66 239 1.66
 158  0.621  0.280  0.411- 266 1.65 254 1.66
 159  0.603  0.892  0.467- 273 1.29 227 1.67
 160  0.031  0.195  0.389- 218 1.66 225 1.66
 161  0.607  0.195  0.548- 237 1.62 248 1.63
 162  0.133  0.938  0.479- 270 1.65 229 1.66
 163  0.080  0.280  0.512- 245 1.64 251 1.65
 164  0.372  0.107  0.569- 277 1.64 224 1.69
 165  0.066  0.696  0.536- 252 1.63 276 1.63
 166  0.666  0.415  0.430- 228 1.65 266 1.65
 167  0.800  0.730  0.564- 258 1.61 243 1.63
 168  0.704  0.957  0.470- 226 1.65 227 1.66
 169  0.601  0.637  0.552- 236 1.62 220 1.64
 170  0.723  0.294  0.452- 241 1.63 266 1.64
 171  0.977  0.314  0.547- 245 1.64 249 1.67
 172  0.158  0.630  0.571- 232 1.63 276 1.65
 173  0.633  0.327  0.508- 248 1.62 266 1.65
 174  0.822  0.398  0.606-  21 0.97 269 1.65
 175  0.959  0.027  0.417- 250 1.64 217 1.65
 176  0.282  0.195  0.519- 275 1.62 253 1.65
 177  0.249  0.443  0.461- 221 1.66 265 1.71
 178  0.273  0.850  0.568- 244 1.64 256 1.65
 179  0.204  0.686  0.487- 232 1.63 247 1.66
 180  0.147  0.476  0.493- 221 1.63 272 1.65
 181  0.225  0.424  0.557- 221 1.61 230 1.63
 182  0.911  0.453  0.474-  19 0.98 216 1.65
 183  0.870  0.705  0.464-  26 0.99 222 1.65
 184  0.738  0.093  0.445-  12 0.98 226 1.66
 185  0.222  0.930  0.408-  29 1.00 229 1.64
 186  0.255  0.402  0.649-  48 0.97 230 1.65
 187  0.631  0.883  0.593-  17 0.99 231 1.62
 188  0.410  0.789  0.423-  39 0.97 233 1.68
 189  0.918  0.196  0.508-  13 0.97 238 1.65
 190  0.133  0.444  0.332-  43 0.98 240 1.65
 191  0.155  0.304  0.311-  31 0.97 240 1.69
 192  0.373  0.131  0.348-  32 0.98 242 1.66
 193  0.036  0.293  0.633-  18 0.97 249 1.66
 194  0.573  0.257  0.320-  14 0.97 254 1.66
 195  0.246  0.771  0.650-  49 0.97 256 1.64
 196  0.207  0.648  0.310-  40 0.97 257 1.65
 197  0.275  0.392  0.367-  41 0.98 265 1.66
 198  0.365  0.598  0.342-  42 0.97 268 1.67
 199  0.226  0.056  0.358-  33 0.97 271 1.69
 200  0.241  0.196  0.329-  30 0.99 271 1.66
 201  0.501  0.892  0.455-  45 0.99 273 1.60
 202  0.550  0.828  0.534-  34 0.97 273 1.67
 203  0.546  0.646  0.633- 220 1.64 255 1.67
 204  0.479  0.124  0.597- 224 1.65 264 1.65
 205  0.262  0.695  0.569- 232 1.65 256 1.65
 206  0.442  0.850  0.581- 263 1.65 215 1.68
 207  0.766  0.617  0.650- 274 1.65 239 1.66
 208  0.846  0.832  0.623- 243 1.66 234 1.68
 209  0.641  0.740  0.622- 220 1.67 231 1.70
 210  0.008  0.033  0.603- 219 1.69 259 1.69
 211  0.284  0.003  0.594- 277 1.69 244 1.70
 212  0.503  0.973  0.629- 263 1.69 264 1.70
 213  0.547  0.518  0.737- 279 1.72
 214  0.083  0.606  0.406- 142 1.65 129 1.65  95 1.67 152 1.68 272 3.13
 215  0.409  0.768  0.574- 132 1.62  93 1.62 107 1.65 206 1.68 256 3.05
 216  0.842  0.441  0.468-  78 1.64 113 1.65 182 1.65 137 1.69
 217  0.017  0.990  0.394-  66 1.65 175 1.65  81 1.65 126 1.65 270 3.11 225 3.13
 218  0.015  0.284  0.391-  83 1.64  82 1.65 160 1.66 135 1.68 245 3.11 225 3.11
 219  0.010  0.115  0.572-  69 1.63 156 1.64  79 1.69 210 1.69 259 2.39 251 3.04 249 3.08
 220  0.610  0.658  0.611- 169 1.64 203 1.64 106 1.67 209 1.67 274 2.87 236 3.12
 221  0.214  0.476  0.510- 181 1.61 180 1.63 140 1.66 177 1.66 232 3.10 265 3.14
 222  0.915  0.756  0.496- 105 1.65 183 1.65  89 1.65  94 1.66 235 2.99 243 3.03
 223  0.521  0.110  0.426- 116 1.64  67 1.65 144 1.66 124 1.67 254 3.08 237 3.12
 224  0.419  0.171  0.590-  87 1.64 204 1.65 104 1.68 164 1.69 264 3.13 277 3.14
 225  0.083  0.139  0.407-  66 1.64 147 1.65  92 1.65 160 1.66 218 3.11 217 3.13 271 3.14
 226  0.702  0.045  0.487-  99 1.64 168 1.65  65 1.65 184 1.66 237 3.09 227 3.10 261 3.15
 227  0.665  0.898  0.437-  98 1.53 168 1.66 128 1.66 159 1.67 273 2.83 260 3.06 226 3.10
 228  0.650  0.504  0.430- 108 1.65 166 1.65  96 1.67 102 1.68 236 3.08
 229  0.198  0.912  0.464- 139 1.50 185 1.64 162 1.66 118 1.67 247 3.01 244 3.07 270 3.07
 230  0.216  0.368  0.604-  86 1.63 181 1.63 110 1.64 186 1.65
 231  0.674  0.813  0.595- 187 1.62 119 1.64 101 1.68 209 1.70 258 2.90
 232  0.217  0.642  0.539- 179 1.63 172 1.63 205 1.65 140 1.65 247 3.09 221 3.10 276 3.13
 233  0.369  0.735  0.459- 107 1.65  76 1.65  60 1.66 188 1.68
 234  0.798  0.888  0.595- 143 1.66 101 1.66 112 1.67 208 1.68 243 2.86 235 2.99 261 3.15
 235  0.880  0.912  0.512-  75 1.60  94 1.62 112 1.65 120 1.65 234 2.99 222 2.99 259 3.05 250 3.13

 236  0.578  0.576  0.513- 102 1.59 169 1.62 103 1.64 136 1.66 246 3.00 228 3.08 220 3.12
 237  0.590  0.115  0.525-  65 1.60 124 1.60 161 1.62 151 1.65 264 2.84 226 3.09 248 3.11 223 3.12

 238  0.858  0.152  0.495- 189 1.65  90 1.65 123 1.65  68 1.69 250 3.07 241 3.15
 239  0.836  0.604  0.646-  62 1.64  74 1.64 207 1.66 157 1.66 274 2.93 243 3.00 269 3.00
 240  0.134  0.360  0.357- 190 1.65  83 1.65  73 1.67 191 1.69 265 3.11
 241  0.791  0.280  0.442- 170 1.63 113 1.65 117 1.67  68 1.67 238 3.15
 242  0.399  0.177  0.396-  67 1.65 125 1.65 192 1.66  77 1.67 262 3.07
 243  0.857  0.750  0.597- 167 1.63  74 1.64  89 1.64 208 1.66 234 2.86 239 3.00 222 3.03
 244  0.283  0.936  0.550- 118 1.58 178 1.64  63 1.68 211 1.70 277 2.38 229 3.07
 245  0.023  0.330  0.502- 163 1.64 171 1.64  85 1.65 135 1.66 249 3.10 218 3.11 251 3.14
 246  0.575  0.695  0.436-  71 1.51 103 1.52 149 1.65  91 1.68 236 3.00 273 3.06 260 3.10
 247  0.230  0.753  0.452- 139 1.63 179 1.66  84 1.66  76 1.67 257 2.97 229 3.01 232 3.09
 248  0.594  0.283  0.548- 173 1.62 114 1.63 161 1.63 145 1.64 237 3.11 266 3.14
 249  0.976  0.273  0.603- 100 1.63  69 1.65 193 1.66 171 1.67 219 3.08 245 3.10
 250  0.889  0.025  0.424-  90 1.64 175 1.64  75 1.65 146 1.66 238 3.07 235 3.13
 251  0.105  0.195  0.518- 148 1.61 147 1.62 156 1.64 163 1.65 219 3.04 245 3.14
 252  0.048  0.733  0.483- 165 1.63 105 1.65  97 1.65 129 1.66 270 3.05
 253  0.232  0.207  0.561- 138 1.62  86 1.63 148 1.63 176 1.65 275 3.02
 254  0.561  0.258  0.381- 121 1.45 116 1.59 158 1.66 194 1.66 262 2.87 223 3.08
 255  0.477  0.631  0.620- 132 1.63 127 1.64 203 1.67  88 1.69 278 2.95 279 3.06
 256  0.282  0.771  0.598- 195 1.64  93 1.64 205 1.65 178 1.65 215 3.05
 257  0.209  0.643  0.372- 196 1.65 153 1.67  84 1.67 152 1.68 247 2.97
 258  0.741  0.710  0.536- 167 1.61 109 1.62 133 1.63 119 1.63 231 2.90 260 2.91 274 3.07
 259  0.986  0.990  0.550-  64 1.63 120 1.65  79 1.68 210 1.69 219 2.39 235 3.05
 260  0.703  0.737  0.434-  98 1.65 131 1.65 149 1.66 133 1.69 258 2.91 227 3.06 246 3.10
 261  0.788  0.059  0.577- 134 1.64  99 1.64 123 1.66 143 1.68 234 3.15 226 3.15
 262  0.456  0.328  0.409- 150 1.66 121 1.66  77 1.67 154 1.69 254 2.87 242 3.07
 263  0.449  0.938  0.595- 206 1.65  72 1.65 122 1.69 212 1.69 264 2.36 277 2.73
 264  0.508  0.043  0.586- 151 1.62 204 1.65 122 1.69 212 1.70 263 2.36 237 2.84 224 3.13
 265  0.244  0.370  0.421-  70 1.65  73 1.66 197 1.66 177 1.71 240 3.11 221 3.14
 266  0.659  0.330  0.450- 170 1.64 158 1.65 166 1.65 173 1.65 248 3.14
 267  0.461  0.319  0.529- 114 1.62 154 1.65 104 1.68 130 1.70
 268  0.337  0.590  0.399- 153 1.65 198 1.67  61 1.67  60 1.68
 269  0.804  0.477  0.580-  78 1.63 174 1.65 157 1.66 115 1.66 274 2.90 239 3.00
 270  0.069  0.899  0.481-  97 1.50  81 1.64 162 1.65  64 1.66 252 3.05 229 3.07 217 3.11
 271  0.212  0.144  0.374-  92 1.65 155 1.65 200 1.66 199 1.69 275 3.12 225 3.14
 272  0.078  0.494  0.495- 111 1.63  85 1.64 180 1.65  95 1.66 276 3.10 214 3.13
 273  0.558  0.852  0.475- 159 1.29 201 1.60  71 1.66 202 1.67 227 2.83 246 3.06
 274  0.719  0.585  0.610- 106 1.64 109 1.65 207 1.65 115 1.66 220 2.87 269 2.90 239 2.93 258 3.07

 275  0.287  0.210  0.459- 176 1.62 125 1.63  70 1.66 155 1.67 253 3.02 271 3.12
 276  0.088  0.625  0.568- 165 1.63 141 1.63 111 1.64 172 1.65 272 3.10 232 3.13
 277  0.353  0.021  0.579- 164 1.64  72 1.66 211 1.69  63 1.69 244 2.38 263 2.73 224 3.14
 278  0.486  0.483  0.574- 136 1.65  80 1.66 130 1.68  88 1.68 255 2.95
 279  0.489  0.509  0.698- 213 1.72  80 1.96 127 1.96   3 2.17   1 2.17   2 2.75 255 3.06

  LATTYP: Found a simple orthorhombic cell.
 ALAT       =    18.1212369514
 B/A-ratio  =     1.2919258579
 C/A-ratio  =     1.4835282260
  
  Lattice vectors:
  
 A1 = (   0.0000000000, -18.1212369514,   0.0000000000)
 A2 = ( -23.4112945954,   0.0000000000,   0.0000000000)
 A3 = (   0.0000000000,   0.0000000000, -26.8833665073)


Analysis of symmetry for initial positions (statically):
=====================================================================
 Subroutine PRICEL returns:
 Original cell was already a primitive cell.
 

 Routine SETGRP: Setting up the symmetry group for a 
 simple orthorhombic supercell.


 Subroutine GETGRP returns: Found  1 space group operations
 (whereof  1 operations were pure point group operations)
 out of a pool of  8 trial point group operations.


The static configuration has the point symmetry C_1 .


Analysis of symmetry for dynamics (positions and initial velocities):
=====================================================================
 Subroutine PRICEL returns:
 Original cell was already a primitive cell.
 

 Routine SETGRP: Setting up the symmetry group for a 
 simple orthorhombic supercell.


 Subroutine GETGRP returns: Found  1 space group operations
 (whereof  1 operations were pure point group operations)
 out of a pool of  8 trial point group operations.


The dynamic configuration has the point symmetry C_1 .


Analysis of constrained symmetry for selective dynamics:
=====================================================================
 Subroutine PRICEL returns:
 Original cell was already a primitive cell.
 

 Routine SETGRP: Setting up the symmetry group for a 
 simple orthorhombic supercell.


 Subroutine GETGRP returns: Found  1 space group operations
 (whereof  1 operations were pure point group operations)
 out of a pool of  8 trial point group operations.


The constrained configuration has the point symmetry C_1 .


 Subroutine INISYM returns: Found  1 space group operations
 (whereof  1 operations are pure point group operations),
 and found     1 'primitive' translations



 KPOINTS: KPOINTS created by Atomic Simulation Env

Automatic generation of k-mesh.
Space group operators:
 irot       det(A)        alpha          n_x          n_y          n_z        tau_x        tau_y        tau_z
    1     1.000000     0.000000     1.000000     0.000000     0.000000     0.000000     0.000000     0.000000
 
 Subroutine IBZKPT returns following result:
 ===========================================
 
 Found      5 irreducible k-points:
 
 Following reciprocal coordinates:
            Coordinates               Weight
  0.000000  0.000000  0.000000      1.000000
  0.333333  0.000000  0.000000      2.000000
  0.000000  0.333333  0.000000      2.000000
  0.333333  0.333333  0.000000      2.000000
 -0.333333  0.333333  0.000000      2.000000
 
 Following cartesian coordinates:
            Coordinates               Weight
  0.000000  0.000000  0.000000      1.000000
  0.014238  0.000000  0.000000      2.000000
  0.000000  0.018395  0.000000      2.000000
  0.014238  0.018395  0.000000      2.000000
 -0.014238  0.018395  0.000000      2.000000
 


--------------------------------------------------------------------------------------------------------




 Dimension of arrays:
   k-points           NKPTS =      5   k-points in BZ     NKDIM =      5   number of bands    NBANDS=    776
   number of dos      NEDOS =    301   number of ions     NIONS =    279
   non local maximal  LDIM  =      6   non local SUM 2l+1 LMDIM =     18
   total plane-waves  NPLWV = ******
   max r-space proj   IRMAX =   2748   max aug-charges    IRDMAX=   9808
   dimension x,y,z NGX =   128 NGY =  100 NGZ =  150
   dimension x,y,z NGXF=   256 NGYF=  200 NGZF=  300
   support grid    NGXF=   256 NGYF=  200 NGZF=  300
   ions per type =               5  54 154  65   1
   NGX,Y,Z   is equivalent  to a cutoff of   9.09,  9.17,  9.28 a.u.
   NGXF,Y,Z  is equivalent  to a cutoff of  18.18, 18.35, 18.55 a.u.

 SYSTEM =  unknown system                          
 POSCAR =   C  H  O Si  W                          

 Startparameter for this run:
   NWRITE =      2    write-flag & timer
   PREC   = normal    normal or accurate (medium, high low for compatibility)
   ISTART =      0    job   : 0-new  1-cont  2-samecut
   ICHARG =      2    charge: 1-file 2-atom 10-const
   ISPIN  =      1    spin polarized calculation?
   LNONCOLLINEAR =      F non collinear calculations
   LSORBIT =      F    spin-orbit coupling
   INIWAV =      1    electr: 0-lowe 1-rand  2-diag
   LASPH  =      T    aspherical Exc in radial PAW
   METAGGA=      F    non-selfconsistent MetaGGA calc.

 Electronic Relaxation 1
   ENCUT  =  500.0 eV  36.75 Ry    6.06 a.u.  42.68 33.04 49.01*2*pi/ulx,y,z
   ENINI  =  500.0     initial cutoff
   ENAUG  =  644.9 eV  augmentation charge cutoff
   NELM   =     60;   NELMIN=  2; NELMDL=  0     # of ELM steps 
   EDIFF  = 0.1E-03   stopping-criterion for ELM
   LREAL  =      T    real-space projection
   NLSPLINE    = F    spline interpolate recip. space projectors
   LCOMPAT=      F    compatible to vasp.4.4
   GGA_COMPAT  = T    GGA compatible to vasp.4.4-vasp.4.6
   LMAXPAW     = -100 max onsite density
   LMAXMIX     =    2 max onsite mixed and CHGCAR
   VOSKOWN=      0    Vosko Wilk Nusair interpolation
   ROPT   =   -0.00050  -0.00050  -0.00050  -0.00050
   ROPT   =   -0.00050
 Ionic relaxation
   EDIFFG = -.5E-01   stopping-criterion for IOM
   NSW    =    150    number of steps for IOM
   NBLOCK =      1;   KBLOCK =    150    inner block; outer block 
   IBRION =      1    ionic relax: 0-MD 1-quasi-New 2-CG
   NFREE  =      0    steps in history (QN), initial steepest desc. (CG)
   ISIF   =      0    stress and relaxation
   IWAVPR =     11    prediction:  0-non 1-charg 2-wave 3-comb
   ISYM   =      2    0-nonsym 1-usesym 2-fastsym
   LCORR  =      T    Harris-Foulkes like correction to forces

   POTIM  = 0.5000    time-step for ionic-motion
   TEIN   =    0.0    initial temperature
   TEBEG  =    0.0;   TEEND  =   0.0 temperature during run
   SMASS  =  -3.00    Nose mass-parameter (am)
   estimated Nose-frequenzy (Omega)   =  0.10E-29 period in steps =****** mass=  -0.125E-25a.u.
   SCALEE = 1.0000    scale energy and forces
   NPACO  =    256;   APACO  = 16.0  distance and # of slots for P.C.
   PSTRESS=    0.0 pullay stress

  Mass of Ions in am
   POMASS =  12.01  1.00 16.00 28.09183.85
  Ionic Valenz
   ZVAL   =   4.00  1.00  6.00  4.00  6.00
  Atomic Wigner-Seitz radii
   RWIGS  =  -1.00 -1.00 -1.00 -1.00 -1.00
  virtual crystal weights 
   VCA    =   1.00  1.00  1.00  1.00  1.00
   NELECT =    1264.0000    total number of electrons
   NUPDOWN=      -1.0000    fix difference up-down

 DOS related values:
   EMIN   =  10.00;   EMAX   =-10.00  energy-range for DOS
   EFERMI =   0.00
   ISMEAR =     0;   SIGMA  =   0.20  broadening in eV -4-tet -1-fermi 0-gaus

 Electronic relaxation 2 (details)
   IALGO  =     68    algorithm
   LDIAG  =      T    sub-space diagonalisation (order eigenvalues)
   LSUBROT=      F    optimize rotation matrix (better conditioning)
   TURBO    =      0    0=normal 1=particle mesh
   IRESTART =      0    0=no restart 2=restart with 2 vectors
   NREBOOT  =      0    no. of reboots
   NMIN     =      0    reboot dimension
   EREF     =   0.00    reference energy to select bands
   IMIX   =      4    mixing-type and parameters
     AMIX     =   0.40;   BMIX     =  1.00
     AMIX_MAG =   1.60;   BMIX_MAG =  1.00
     AMIN     =   0.10
     WC   =   100.;   INIMIX=   1;  MIXPRE=   1;  MAXMIX= -45

 Intra band minimization:
   WEIMIN = 0.0010     energy-eigenvalue tresh-hold
   EBREAK =  0.32E-07  absolut break condition
   DEPER  =   0.30     relativ break condition  

   TIME   =   0.40     timestep for ELM

  volume/ion in A,a.u.               =      40.88       275.86
  Fermi-wavevector in a.u.,A,eV,Ry     =   0.786366  1.486017  8.413461  0.618372
  Thomas-Fermi vector in A             =   1.890890

 Write flags
   LWAVE        =      F    write WAVECAR
   LDOWNSAMPLE  =      F    k-point downsampling of WAVECAR
   LCHARG       =      F    write CHGCAR
   LVTOT        =      F    write LOCPOT, total local potential
   LVHAR        =      F    write LOCPOT, Hartree potential only
   LELF         =      F    write electronic localiz. function (ELF)
   LORBIT       =      0    0 simple, 1 ext, 2 COOP (PROOUT), +10 PAW based schemes


 Dipole corrections
   LMONO  =      F    monopole corrections only (constant potential shift)
   LDIPOL =      T    correct potential (dipole corrections)
   IDIPOL =      3    1-x, 2-y, 3-z, 4-all directions 
   EPSILON=  1.0000000 bulk dielectric constant

 Exchange correlation treatment:
   GGA     =    RP    GGA type
   LEXCH   =     9    internal setting for exchange type
   VOSKOWN=      0    Vosko Wilk Nusair interpolation
   LHFCALC =     F    Hartree Fock is set to
   LHFONE  =     F    Hartree Fock one center treatment
   AEXX    =    0.0000 exact exchange contribution

 Linear response parameters
   LEPSILON=     F    determine dielectric tensor
   LRPA    =     F    only Hartree local field effects (RPA)
   LNABLA  =     F    use nabla operator in PAW spheres
   LVEL    =     F    velocity operator in full k-point grid
   LINTERFAST=   F  fast interpolation
   KINTER  =     0    interpolate to denser k-point grid
   CSHIFT  =0.1000    complex shift for real part using Kramers Kronig
   OMEGAMAX=  -1.0    maximum frequency
   DEG_THRESHOLD= 0.2000000E-02 threshold for treating states as degnerate
   RTIME   =   -0.100 relaxation time in fs
  (WPLASMAI=    0.000 imaginary part of plasma frequency in eV, 0.658/RTIME)
   DFIELD  = 0.0000000 0.0000000 0.0000000 field for delta impulse in time

 Orbital magnetization related:
   ORBITALMAG=     F  switch on orbital magnetization
   LCHIMAG   =     F  perturbation theory with respect to B field
   DQ        =  0.001000  dq finite difference perturbation B field
   LLRAUG    =     F  two centre corrections for induced B field



--------------------------------------------------------------------------------------------------------


 quasi-Newton-method for relaxation of ions
   using selective dynamics as specified on POSCAR
 charge density and potential will be updated during run
 non-spin polarized calculation
 RMM-DIIS sequential band-by-band and
  variant of blocked Davidson during initial phase
 perform sub-space diagonalisation
    before iterative eigenvector-optimisation
 modified Broyden-mixing scheme, WC =      100.0
 initial mixing is a Kerker type mixing with AMIX =  0.4000 and BMIX =      1.0000
 Hartree-type preconditioning will be used
 using additional bands          144
 real space projection scheme for non local part
 use partial core corrections
 calculate Harris-corrections to forces   (improved forces if not selfconsistent)
 use gradient corrections 
 use of overlap-Matrix (Vanderbilt PP)
 Gauss-broadening in eV      SIGMA  =   0.20


--------------------------------------------------------------------------------------------------------


  energy-cutoff  :      500.00
  volume of cell :    11405.04
      direct lattice vectors                 reciprocal lattice vectors
    23.411294595  0.000000000  0.000000000     0.042714426  0.000000000  0.000000000
     0.000000000 18.121236951  0.000000000     0.000000000  0.055183871  0.000000000
     0.000000000  0.000000000 26.883366507     0.000000000  0.000000000  0.037197722

  length of vectors
    23.411294595 18.121236951 26.883366507     0.042714426  0.055183871  0.037197722



 k-points in units of 2pi/SCALE and weight: KPOINTS created by Atomic Simulation Env
   0.00000000  0.00000000  0.00000000       0.111
   0.01423814  0.00000000  0.00000000       0.222
   0.00000000  0.01839462  0.00000000       0.222
   0.01423814  0.01839462  0.00000000       0.222
  -0.01423814  0.01839462  0.00000000       0.222

 k-points in reciprocal lattice and weights: KPOINTS created by Atomic Simulation Env
   0.00000000  0.00000000  0.00000000       0.111
   0.33333333  0.00000000  0.00000000       0.222
   0.00000000  0.33333333  0.00000000       0.222
   0.33333333  0.33333333  0.00000000       0.222
  -0.33333333  0.33333333  0.00000000       0.222

 position of ions in fractional coordinates (direct lattice) 
   0.42263809  0.52130169  0.75394109
   0.43123605  0.44404220  0.77597901
   0.45219414  0.40781973  0.72720171
   0.37924194  0.40894257  0.80152596
   0.49171652  0.34060597  0.72964530
   0.76248687  0.10345083  0.65151869
   0.92642768  0.27866896  0.35633493
   0.79333970  0.20727890  0.37345652
   0.97453911  0.94360860  0.32530279
   0.62573266  0.96347285  0.37523120
   0.82053840  0.99500666  0.36899263
   0.74999307  0.14117876  0.45803819
   0.91538684  0.24943673  0.51022132
   0.58349286  0.30426355  0.30592717
   0.89267525  0.33489767  0.61586309
   0.62101566  0.36397688  0.60710744
   0.59402163  0.87081729  0.57790664
   0.03314851  0.33693994  0.65377347
   0.93527051  0.41951423  0.45410146
   0.74613838  0.53031199  0.42248819
   0.80662295  0.38917926  0.63944469
   0.59110202  0.56868283  0.37803474
   0.71843379  0.64593279  0.38346059
   0.84115291  0.54242660  0.41959617
   0.00476455  0.60379815  0.35777830
   0.82835870  0.71235667  0.46794226
   0.87280050  0.59637839  0.72334988
   0.51999031  0.98556476  0.42170307
   0.22309457  0.98015484  0.39320502
   0.21637369  0.23785146  0.31923033
   0.15750105  0.32980623  0.27898292
   0.34154688  0.15558571  0.33077276
   0.22271586  0.04575893  0.32273843
   0.51126777  0.82681821  0.54700549
   0.36948756  0.23524213  0.64751151
   0.24339008  0.09431014  0.59896041
   0.31538097  0.48713646  0.44243467
   0.40895618  0.43873486  0.40569060
   0.39849950  0.79311361  0.38878680
   0.24420236  0.65543008  0.29432688
   0.31174138  0.41847571  0.36925764
   0.40547429  0.58427965  0.33881989
   0.13935762  0.48797365  0.35192946
   0.59326935  0.69798713  0.35239799
   0.46900683  0.86142747  0.44382838
   0.12247047  0.32650862  0.61390420
   0.07311241  0.66427459  0.64623352
   0.24086504  0.39285504  0.68258227
   0.24871729  0.81563927  0.67035604
   0.42981427  0.56964051  0.77797028
   0.38097488  0.52656845  0.73515507
   0.46747453  0.44545917  0.80225419
   0.41450191  0.39697430  0.70323149
   0.36656398  0.44176077  0.83426920
   0.34262104  0.40730641  0.77569966
   0.38837329  0.35221065  0.81409261
   0.50531283  0.32217259  0.69248024
   0.53016232  0.35292821  0.75178148
   0.46929788  0.29399068  0.74760364
   0.36894173  0.64835510  0.43900002
   0.34681565  0.50403387  0.42038813
   0.86213874  0.56490915  0.69571049
   0.34857938  0.96054683  0.53077517
   0.03322284  0.93226026  0.52851950
   0.63635548  0.07886855  0.48937667
   0.06864615  0.05226542  0.39511073
   0.45189954  0.12956232  0.42059728
   0.80588415  0.21365018  0.48316661
   0.97409681  0.18181527  0.59857178
   0.27476529  0.29917287  0.44851223
   0.55635417  0.77509129  0.44175101
   0.39098437  0.97443567  0.62008464
   0.17751724  0.34996845  0.40527312
   0.86691494  0.68488532  0.63759027
   0.86569601  0.96717693  0.46703846
   0.30104714  0.76093683  0.45792526
   0.42161095  0.26125222  0.37959630
   0.81120060  0.46452859  0.52031684
   0.98380898  0.07238354  0.52110572
   0.50476322  0.46658746  0.63250635
   0.03453641  0.91994776  0.42940526
   0.96303654  0.30319531  0.35125762
   0.06962669  0.33610577  0.37637178
   0.20829566  0.72864429  0.39536010
   0.03890126  0.41910192  0.49910875
   0.23978855  0.28703413  0.58751870
   0.39852156  0.19711272  0.64552953
   0.45440688  0.56601381  0.57928243
   0.91036937  0.74919822  0.55749574
   0.86912727  0.10804334  0.44227833
   0.57257679  0.66733185  0.37613173
   0.14242656  0.15912550  0.37597224
   0.35107240  0.76554881  0.60647224
   0.91099605  0.84504757  0.48317962
   0.06133801  0.53687171  0.44225348
   0.70833903  0.55516655  0.41995768
   0.07548726  0.81680680  0.48299416
   0.70046477  0.82755571  0.43263529
   0.73022998  0.04927687  0.54295143
   0.91992197  0.30226485  0.63237534
   0.73559141  0.85244642  0.61307414
   0.62512195  0.52739400  0.48637871
   0.55657330  0.62970304  0.46724942
   0.42534986  0.24843081  0.55570112
   0.97829009  0.72824363  0.47679564
   0.65473416  0.59408849  0.63286957
   0.39657916  0.74792529  0.51491208
   0.60269007  0.51766545  0.38567099
   0.72130616  0.63033053  0.55695788
   0.14867482  0.36638335  0.62218527
   0.06634805  0.54821290  0.54213542
   0.81847297  0.88452152  0.53626614
   0.82821553  0.35538514  0.45190334
   0.52759157  0.29626820  0.53195848
   0.73775986  0.49879716  0.59588590
   0.55743394  0.17243111  0.39490854
   0.80596408  0.25641257  0.38329286
   0.23744622  0.95325075  0.50791956
   0.69310251  0.77553592  0.54184506
   0.92349687  0.94988233  0.55284905
   0.52573722  0.31778112  0.39855594
   0.46727822  0.99318430  0.54655579
   0.83777293  0.09481480  0.53966947
   0.53790325  0.11641749  0.48623709
   0.35019344  0.18660873  0.43963639
   0.01176032  0.96241390  0.33524376
   0.45318229  0.59932234  0.67357596
   0.65496522  0.92539750  0.37922825
   0.07629334  0.68602626  0.43588102
   0.45481936  0.40560091  0.55284259
   0.71921944  0.70042085  0.37958300
   0.45316355  0.70871062  0.59812024
   0.75255106  0.70932458  0.47629548
   0.77943959  0.12088733  0.62078217
   0.99327462  0.30801347  0.44840298
   0.53755654  0.50922368  0.53638378
   0.81677759  0.49906173  0.42344221
   0.23661490  0.14663281  0.60565758
   0.20353331  0.83070132  0.47053363
   0.23984268  0.55923483  0.52267155
   0.06115119  0.62516191  0.62396190
   0.04607407  0.60234669  0.35417863
   0.80092074  0.97858501  0.60544393
   0.53799091  0.02769749  0.40450275
   0.60680779  0.31386303  0.60429402
   0.86154611  0.00408085  0.36920633
   0.09491131  0.14902284  0.46708233
   0.17149580  0.20454506  0.53103102
   0.64098865  0.70443872  0.45481558
   0.43678778  0.40976848  0.38641325
   0.57384155  0.05863944  0.57123398
   0.15143775  0.59340802  0.38895836
   0.26773979  0.60233753  0.39230630
   0.44025846  0.32219818  0.47032443
   0.23800967  0.15851113  0.42990119
   0.07333977  0.14922204  0.56241185
   0.84559555  0.54557006  0.59913374
   0.62117943  0.27993988  0.41090545
   0.60266699  0.89152667  0.46722346
   0.03138539  0.19528983  0.38899188
   0.60742523  0.19488609  0.54777686
   0.13279973  0.93835464  0.47948708
   0.07994478  0.28010324  0.51207301
   0.37183528  0.10667565  0.56948466
   0.06642645  0.69639819  0.53561711
   0.66648838  0.41538488  0.43001156
   0.80001859  0.72970489  0.56401658
   0.70383856  0.95720843  0.47018456
   0.60062333  0.63712000  0.55207787
   0.72284030  0.29368465  0.45166811
   0.97737927  0.31417786  0.54710071
   0.15825462  0.62988973  0.57076368
   0.63333384  0.32678308  0.50780070
   0.82185050  0.39762926  0.60629102
   0.95857820  0.02724304  0.41695300
   0.28204018  0.19540857  0.51860087
   0.24925755  0.44303289  0.46105570
   0.27348600  0.85040235  0.56839967
   0.20366815  0.68557317  0.48688872
   0.14712345  0.47606988  0.49254493
   0.22477540  0.42367852  0.55694490
   0.91141698  0.45274460  0.47371881
   0.86978818  0.70456011  0.46415352
   0.73812021  0.09283462  0.44522965
   0.22218344  0.92978119  0.40794682
   0.25499141  0.40205327  0.64923410
   0.63115773  0.88316459  0.59325200
   0.41022327  0.78906239  0.42343739
   0.91777135  0.19603829  0.50824515
   0.13254706  0.44353611  0.33227266
   0.15514768  0.30352326  0.31056042
   0.37300515  0.13090704  0.34795342
   0.03555212  0.29326783  0.63290605
   0.57268926  0.25686819  0.32009968
   0.24617135  0.77149293  0.65007009
   0.20737430  0.64840505  0.31036906
   0.27537441  0.39219130  0.36737583
   0.36535081  0.59758663  0.34222079
   0.22638085  0.05618082  0.35811888
   0.24120333  0.19607823  0.32934297
   0.50127293  0.89230162  0.45484168
   0.55016673  0.82799207  0.53433156
   0.54562130  0.64647947  0.63266243
   0.47859930  0.12428599  0.59662577
   0.26208963  0.69512392  0.56875725
   0.44172483  0.85006031  0.58056857
   0.76621609  0.61712777  0.64965712
   0.84552937  0.83227395  0.62254206
   0.64076512  0.73985776  0.62169824
   0.00790225  0.03328409  0.60295300
   0.28377469  0.00321995  0.59364056
   0.50260712  0.97343798  0.62876178
   0.54744831  0.51785368  0.73675121
   0.08322528  0.60642030  0.40641308
   0.40936521  0.76786219  0.57392382
   0.84176382  0.44145312  0.46783897
   0.01708949  0.99048204  0.39361135
   0.01470021  0.28419027  0.39108141
   0.00959647  0.11470810  0.57235713
   0.61047652  0.65813585  0.61066380
   0.21399890  0.47634205  0.50965752
   0.91506213  0.75556094  0.49625454
   0.52057854  0.11045563  0.42598659
   0.41850203  0.17113668  0.58969748
   0.08345253  0.13917208  0.40698087
   0.70189793  0.04484625  0.48732303
   0.66505935  0.89803746  0.43747644
   0.65009874  0.50402706  0.43015089
   0.19846065  0.91248223  0.46399069
   0.21553267  0.36781559  0.60400954
   0.67408671  0.81333534  0.59492584
   0.21660995  0.64205900  0.53870299
   0.36878912  0.73512773  0.45920930
   0.79762725  0.88840137  0.59547455
   0.87954933  0.91212701  0.51190545
   0.57760273  0.57594138  0.51280579
   0.58973800  0.11509594  0.52523524
   0.85812234  0.15211323  0.49517595
   0.83615359  0.60419640  0.64577786
   0.13373852  0.36031890  0.35687228
   0.79065529  0.27993925  0.44187265
   0.39917610  0.17749484  0.39600320
   0.85651750  0.75038623  0.59651414
   0.28302551  0.93556217  0.54972359
   0.02307473  0.33044751  0.50224551
   0.57455938  0.69549008  0.43556436
   0.23024095  0.75260050  0.45196954
   0.59398033  0.28341320  0.54797863
   0.97598678  0.27253983  0.60261660
   0.88890636  0.02540900  0.42420019
   0.10482389  0.19533644  0.51783265
   0.04814566  0.73303709  0.48263019
   0.23206400  0.20671238  0.56102745
   0.56140781  0.25778527  0.38122611
   0.47687325  0.63053904  0.62003939
   0.28192080  0.77108116  0.59775238
   0.20850083  0.64339984  0.37179454
   0.74093088  0.71043701  0.53595788
   0.98633706  0.99038265  0.55037325
   0.70310456  0.73681815  0.43426040
   0.78805502  0.05936940  0.57672285
   0.45631390  0.32845159  0.40928789
   0.44867684  0.93823253  0.59453115
   0.50807810  0.04270230  0.58645584
   0.24424715  0.37040632  0.42094710
   0.65852534  0.33000211  0.45034791
   0.46084700  0.31878528  0.52897921
   0.33729937  0.58994254  0.39908301
   0.80431409  0.47698973  0.57994847
   0.06920979  0.89885916  0.48050551
   0.21190758  0.14445432  0.37359659
   0.07823286  0.49398499  0.49468762
   0.55757019  0.85234010  0.47473025
   0.71915390  0.58457983  0.60980204
   0.28664212  0.21010174  0.45911077
   0.08802368  0.62529962  0.56783930
   0.35270987  0.02096232  0.57874215
   0.48587001  0.48306528  0.57398533
   0.48932016  0.50857764  0.69828305

 position of ions in cartesian coordinates  (Angst):
   9.89450476  9.44663143 20.26847477
  10.09579413  8.04659395 20.86092812
  10.58645032  7.39019792 19.54963016
   8.87854477  7.41054518 21.54771615
  11.51172040  6.17220146 19.61532198
  17.85080479  1.87465692 17.51501572
  21.68887124  5.04982630  9.57948250
  18.57310935  3.75615001 10.03976840
  22.81522226 17.09935504  8.74523415
  14.64921175 17.45931981 10.08747787
  19.20986618 18.03075152  9.91976410
  17.55830880  2.55833368 12.31360861
  21.43039100  4.52010214 13.71646661
  13.66032332  5.51363181  8.22435231
  20.89868335  6.06876002 16.55647310
  14.53878046  6.59571129 16.32109190
  13.90681528 15.78028645 15.53607605
   0.77604952  6.10576842 17.57563194
  21.89589338  7.60211669 12.20777585
  17.46806539  9.60990927 11.35790489
  18.88408741  7.05240951 17.19042599
  13.83846346 10.30523625 10.16284657
  16.81946503 11.70510106 10.30871170
  19.69247867  9.82944087 11.28015755
   0.11154425 10.94156933  9.61828518
  19.39294954 12.90878407 12.57986315
  20.43338954 10.80711406 19.44607982
  12.17364643 17.85965257 11.33679820
   5.22293275 17.76161801 10.57067472
   5.06558822  4.31016263  8.58198589
   3.68730349  5.97649684  7.50000000
   7.99605454  2.81940543  8.89228530
   5.21406665  0.82920834  8.67629559
  11.96944046 14.98296877 14.70534894
   8.65018200  4.26287834 17.40728927
   5.69807693  1.70901633 16.10207234
   7.38347683  8.82751530 11.89413327
   9.57419369  7.95041833 10.90632902
   9.32938926 14.37219961 10.45189795
   5.71709332 11.87720376  7.91249741
   7.29826932  7.58329756  9.92688859
   9.49267817 10.58787004  9.10861924
   3.26254231  8.84268607  9.46104865
  13.88920341 12.64839014  9.47364424
  10.98005707 15.61013128 11.93160111
   2.86719214  5.91673998 16.50381164
   1.71165628 12.03747734 17.37293261
   5.63896242  7.11901933 18.35010935
   5.82279383 14.78039256 18.02142715
  10.06250857 10.32259073 20.91446023
   8.91911505  9.54207173 19.76344314
  10.94418392  8.07227111 21.56729343
   9.70402644  7.19366537 18.90522994
   8.58173744  8.00525164 22.42796475
   8.02120219  7.38089589 20.85341827
   9.09232160  6.38249260 21.88554990
  11.83002751  5.83816575 18.61620018
  12.41178619  6.39549565 20.21041697
  10.98687104  5.32747479 20.09810278
   8.63740362 11.74899635 11.80179838
   8.11940335  9.13371715 11.30144811
  20.18378399 10.23685262 18.70304022
   8.16069455 17.40629669 14.26902341
   0.77778973 16.89370916 14.20838330
  14.89790566  1.42919560 13.15609244
   1.60709516  0.94711408 10.62190669
  10.57955331  2.34782959 11.30707087
  18.86679123  3.87160553 12.98914499
  22.80486732  3.29471750 16.09162448
   6.43261122  5.42138248 12.05751853
  13.02497128 14.04561294 11.87575437
   9.15345023 17.65797959 16.66996265
   4.15590840  6.34186119 10.89510594
  20.29560113 12.41096916 17.14057293
  20.26706432 17.52644236 12.55556607
   7.04790320 13.78911669 12.31057251
   9.87045805  4.73421333 10.20482654
  18.99125615  8.41783273 13.98786839
  23.03224189  1.31167936 14.00907607
  11.81716050  8.45514198 17.00390003
   0.80854198 16.67059137 11.54385891
  22.54593219  5.49427402  9.44298747
   1.63005096  6.09065222 10.11814055
   4.87647100 13.20393591 10.62861051
   0.91072893  7.59464512 13.41772355
   5.61376040  5.20141355 15.79448051
   9.32990569  3.57192623 17.35400685
  10.63825344 10.25687045 15.57306178
  21.31292546 13.57639844 14.98736237
  20.34739459  1.95787901 11.88993046
  13.40476402 12.09287863 10.11168720
   3.33439013  2.88355087 10.10739962
   8.21905947 13.87269132 16.30401560
  21.32759690 15.31330727 12.98949491
   1.43600223  9.72877939 11.88926245
  16.58313365 10.06030463 11.28987623
   1.76725442 14.80154965 12.98450890
  16.39878711 14.99633320 11.63069310
  17.09562910  0.89295791 14.59636221
  21.53656416  5.47741291 17.00037792
  17.22114719 15.44738351 16.48149674
  14.63491423  9.55703168 13.07549710
  13.03010146 11.41099800 12.56123752
   9.95799097  4.50187362 14.93911676
  22.90303759 13.19667544 12.81787194
  15.32817428 10.76561821 17.01366455
   9.28443164 13.55333143 13.84257015
  14.10975474  9.38073831 10.36813464
  16.88671110 11.42236881 14.97290277
   3.48067009  6.63931959 16.72643454
   1.55329375  9.93429595 14.57442525
  19.16151183 16.02862401 14.41663925
  19.38959778  6.44001838 12.14868300
  12.35160178  5.36874626 14.30083481
  17.27191344  9.03882147 16.01941900
  13.05025009  3.12466491 10.61647095
  18.86866258  4.64651294 10.30420244
   5.55892333 17.27408272 13.65458756
  16.22642706 14.05367022 14.56661938
  21.62025734 17.21304275 14.86244355
  12.30818899  5.75858696 10.71452528
  10.93958815 17.99772800 14.69325965
  19.61334898  1.71816148 14.50813229
  12.59301152  2.10962891 13.07168996
   8.19848185  3.38158105 11.81890631
   0.27532438 17.44013032  9.01248080
  10.60958400 10.86046212 18.10798948
  15.33358375 16.76934745 10.19493214
   1.78612593 12.43164436 11.71794928
  10.64791002  7.34999020 14.86227002
  16.83785811 12.69249221 10.20446890
  10.60914539 12.84271303 16.07948562
  17.61819454 12.85383870 12.80442605
  18.24768996  2.19062790 16.68871452
  23.25384464  5.58158513 12.05458163
  12.58489459  9.22776303 14.41980163
  19.12182067  9.04361594 11.38355200
   5.53946103  2.65716793 16.28211475
   4.76497818 15.05333538 12.64952801
   5.61502759 10.13402691 14.05117085
   1.43162863 11.32870707 16.77419650
   1.07865368 10.91526713  9.52151395
  18.75059150 17.73317080 16.27637105
  12.59506368  0.50191281 10.87439573
  14.20615585  5.68758639 16.24545773
  20.16990973  0.07395004  9.92550906
   2.22199659  2.70047811 12.55674536
   4.01493877  3.70660946 14.27590164
  15.00637423 12.76530096 12.22697399
  10.22576747  7.42551173 10.38808912
  13.43437361  1.06261919 15.35669240
   3.54535369 10.75328740 10.45651017
   6.26813510 10.91510113 10.54651395
  10.30702050  5.83862960 12.64390410
   5.57211440  2.87241773 11.55719116
   1.71697889  2.70408790 15.11952382
  19.79648658  9.88640437 16.10673181
  14.54261459  5.07285683 11.04652184
  14.10921452 16.15556596 12.56053950
   0.73477264  3.53889327 10.45741115
  14.22061107  3.53157699 14.72608622
   3.10901351 17.00414686 12.89022683
   1.87161075  5.07581720 13.76624627
   8.70514532  1.93309467 15.30966471
   1.55512916 12.61959655 14.39919109
  15.60335581  7.52728779 11.56015827
  18.72947089 13.22315518 15.16266440
  16.47777184 17.34580083 12.64014391
  14.06136979 11.54540253 14.84171179
  16.92262720  5.32192920 12.14235921
  22.88171412  5.69329139 14.70790901
   3.70494554 11.41438101 15.34404919
  14.82716522  5.92171361 13.65139239
  19.24058406  7.20553403 16.29914372
  22.44155659  0.49367766 11.20910044
   6.60292576  3.54104501 13.94173718
   5.83544193  8.02830396 12.39472924
   6.40266134 15.41034253 15.28049673
   4.76813504 12.42343385 13.08920785
   3.44435051  8.62697504 13.24126574
   5.26228311  7.67757891 14.97255377
  21.33745138  8.20429214 12.73515651
  20.36286723 12.76750071 12.47800922
  17.28034963  1.68227812 11.96927179
   5.20160188 16.84878525 10.96698378
   5.96967900  7.28570259 17.45359814
  14.77621948 16.00403489 15.94861106
   9.60385771 14.29878657 11.38342242
  21.48621551  3.55245637 13.66334053
   3.10309823  8.03742301  8.93260776
   3.63220806  5.50021683  8.34890949
   8.73253334  2.37219755  9.35415932
   0.83232124  5.31437589 17.01464542
  13.40739699  4.65476936  8.60535697
   5.76319000 13.98040618 17.47607254
   4.85490080 11.74990154  8.34376522
   6.44687148  7.10699146  9.87629901
   8.55333550 10.82900896  9.20004704
   5.29986877  1.01806602  9.62744117
   5.64688233  3.55318002  8.85384768
  11.73544815 16.16960912 12.22767567
  12.88011536 15.00424048 14.36463105
  12.77370097 11.71500765 17.00809601
  11.20462927  2.25221590 16.03930927
   6.13585755 12.59650524 15.29010969
  10.34135001 15.40414431 15.60763764
  17.93811072 11.18311862 17.46497047
  19.79493722 15.08183353 16.73602631
  15.00114096 13.40713784 16.71334156
   0.18500197  0.60314883 16.20940642
   6.64353277  0.05834940 15.95905675
  11.76668324 17.63990028 16.90323348
  12.81647355  9.38414921 19.80635273
   1.94841153 10.98908596 10.92575188
   9.58376957 13.91461263 15.42900450
  19.70678074  7.99967650 12.57708649
   0.40008717 17.94875972 10.58159830
   0.34415087  5.14987929 10.51358498
   0.22466571  2.07865258 15.38688661
  14.29204571 11.92623572 16.41669872
   5.00999129  8.63190713 13.70130998
  21.42278905 13.69169878 13.34099278
  12.18741762  2.00159257 11.45195358
   9.79767437  3.10120838 15.85305339
   1.95373172  2.52197018 10.94101594
  16.43233932  0.81266960 13.10088356
  15.56990047 16.27354966 11.76083937
  15.21965321  9.13359373 11.56390395
   4.64622068 16.53530673 12.47363180
   5.04589879  6.66527352 16.23780973
  15.78124248 14.73864247 15.99360951
   5.07111946 11.63490323 14.48214979
   8.63383069 13.32142384 12.34509184
  18.67348657 16.09893181 16.00836049
  20.59138857 16.52886970 13.76174189
  13.52242762 10.43677015 13.78594609
  13.80653006  2.08568086 14.12009152
  20.08975493  2.75647992 13.31199648
  19.57543796 10.94878611 17.36068281
   3.13099191  6.52942423  9.59392828
  18.51026388  5.07284540 11.87902451
   9.34522920  3.21642612 10.64589911
  20.05218349 13.59792659 16.03630833
   6.62599353 16.95354370 14.77842086
   0.54020935  5.98811771 13.50205012
  13.45117902 12.60314055 11.70943634
   5.39023881 13.63805192 12.15046292
  13.90584853  5.13579775 14.73151025
  22.84911401  4.93875880 16.20036291
  20.81044864  0.46044249 11.40392910
   2.45406293  3.53973787 13.92108503
   1.12715225 13.28353886 12.97472440
   5.43291860  3.74588410 15.08230663
  13.14328356  4.67138795 10.24864117
  11.16422009 11.42614734 16.66874616
   6.60013084 13.97294436 16.06959640
   4.88127424 11.65920103  9.99508876
  17.34615122 12.87399746 14.40835222
  23.09142738 17.94695864 14.79588570
  16.46058793 13.35205634 11.67438144
  18.44938813  1.07584703 15.50425162
  10.68289909  5.95194918 11.00303640
  10.50410572 17.00193404 15.98299894
  11.89476605  0.77381846 15.76590723
   5.71814202  6.71222076 11.31647527
  15.41693082  5.98004644 12.10686792
  10.78902479  5.77678361 14.22074186
   7.89661487 10.69048858 10.72869482
  18.83003416  8.64364387 15.59096740
   1.62029077 16.28843974 12.91760565
   4.96103075  2.61769098 10.04353415
   1.83153245  8.95161914 13.29886860
  13.05343995 15.44545689 12.76234739
  16.83632373 10.59330961 16.39353179
   6.71066321  3.80730338 12.34244318
   2.06074819 11.33120251 15.26543198
   8.25739457  0.37986323 15.55853725
  11.37484595  8.75374040 15.43065793
  11.45561831  9.21605586 18.77219908



--------------------------------------------------------------------------------------------------------


 k-point  1 :   0.0000 0.0000 0.0000  plane waves:  289505
 k-point  2 :   0.3333 0.0000 0.0000  plane waves:  289422
 k-point  3 :   0.0000 0.3333 0.0000  plane waves:  289550
 k-point  4 :   0.3333 0.3333 0.0000  plane waves:  289551
 k-point  5 :  -0.3333 0.3333 0.0000  plane waves:  289551

 maximum and minimum number of plane-waves per node :     72451    72309

 maximum number of plane-waves:    289551
 maximum index in each direction: 
   IXMAX=   43   IYMAX=   33   IZMAX=   49
   IXMIN=  -43   IYMIN=  -33   IZMIN=  -49


 real space projection operators:
  total allocation   :      13911.91 KBytes
  max/ min on nodes  :       3481.30       3474.82


 parallel 3D FFT for wavefunctions:
    minimum data exchange during FFTs selected (reduces bandwidth)
 parallel 3D FFT for charge:
    minimum data exchange during FFTs selected (reduces bandwidth)


 total amount of memory used by VASP MPI-rank0   703413. kBytes
=======================================================================

   base      :      30000. kBytes
   nonlr-proj:      17124. kBytes
   fftplans  :      30982. kBytes
   grid      :      57864. kBytes
   one-center:       1088. kBytes
   wavefun   :     566355. kBytes

     INWAV:  cpu time    0.0000: real time    0.0000
 Broyden mixing: mesh for mixing (old mesh)
   NGX = 85   NGY = 67   NGZ = 99
  (NGX  =256   NGY  =200   NGZ  =300)
  gives a total of 563805 points

 initial charge density was supplied:
 charge density of overlapping atoms calculated
 number of electron    1264.0000000 magnetization 
 keeping initial charge density in first step


--------------------------------------------------------------------------------------------------------


 Maximum index for non-local projection operator          663
 Maximum index for augmentation-charges          518 (set IRDMAX)


--------------------------------------------------------------------------------------------------------


 First call to EWALD:  gamma=   0.079
 Maximum number of real-space cells 3x 3x 2
 Maximum number of reciprocal cells 3x 2x 3

    FEWALD:  cpu time    0.0276: real time    0.0277


--------------------------------------- Iteration      1(   1)  ---------------------------------------


    POTLOK:  cpu time    0.2780: real time    0.2845
    SETDIJ:  cpu time    0.5710: real time    0.5725
     EDDAV:  cpu time   82.2667: real time   82.5523
       DOS:  cpu time    0.0018: real time    0.0018
    --------------------------------------------
      LOOP:  cpu time   83.1175: real time   83.4112

 eigenvalue-minimisations  :  8704
 total energy-change (2. order) : 0.1301254E+05  (-0.5022976E+05)
 number of electron    1264.0000000 magnetization 
 augmentation part     1264.0000000 magnetization 

 DIPCOR: dipole corrections for dipol
 direction  3 min pos    77,
 dipolmoment           0.000000      0.000000      6.475695 electrons x Angstroem
 Tr[quadrupol]    -96191.993498

 energy correction for charged system         0.000000 eV
 dipol+quadrupol energy correction           -0.340949 eV
 added-field ion interaction        887.318447 eV  (added to PSCEN)


 Free energy of the ion-electron system (eV)
  ---------------------------------------------------
  alpha Z        PSCENC =      1382.29430561
  Ewald energy   TEWEN  =    308459.53549521
  -Hartree energ DENC   =   -370825.16851715
  -exchange      EXHF   =         0.00000000
  -V(xc)+E(xc)   XCENC  =      3796.49576758
  PAW double counting   =     60068.29421653   -59086.67348277
  entropy T*S    EENTRO =        -1.65298190
  eigenvalues    EBANDS =     -5660.16210267
  atomic energy  EATOM  =     74879.57743707
  Solvation  Ediel_sol  =         0.00000000
  ---------------------------------------------------
  free energy    TOTEN  =     13012.54013751 eV

  energy without entropy =    13014.19311942  energy(sigma->0) =    13013.36662847


--------------------------------------------------------------------------------------------------------




--------------------------------------- Iteration      1(   2)  ---------------------------------------


     EDDAV:  cpu time   98.3847: real time   98.7406
       DOS:  cpu time    0.0012: real time    0.0012
    --------------------------------------------
      LOOP:  cpu time   98.3859: real time   98.7418

 eigenvalue-minimisations  : 10784
 total energy-change (2. order) :-0.1244018E+05  (-0.1204817E+05)
 number of electron    1264.0000000 magnetization 
 augmentation part     1264.0000000 magnetization 

 DIPCOR: dipole corrections for dipol
 direction  3 min pos    77,
 dipolmoment           0.000000      0.000000      6.475695 electrons x Angstroem
 Tr[quadrupol]    -96191.993498

 energy correction for charged system         0.000000 eV
 dipol+quadrupol energy correction           -0.340949 eV
 added-field ion interaction        887.318447 eV  (added to PSCEN)


 Free energy of the ion-electron system (eV)
  ---------------------------------------------------
  alpha Z        PSCENC =      1382.29430561
  Ewald energy   TEWEN  =    308459.53549521
  -Hartree energ DENC   =   -370825.16851715
  -exchange      EXHF   =         0.00000000
  -V(xc)+E(xc)   XCENC  =      3796.49576758
  PAW double counting   =     60068.29421653   -59086.67348277
  entropy T*S    EENTRO =        -0.00000000
  eigenvalues    EBANDS =    -18101.99316470
  atomic energy  EATOM  =     74879.57743707
  Solvation  Ediel_sol  =         0.00000000
  ---------------------------------------------------
  free energy    TOTEN  =       572.36205739 eV

  energy without entropy =      572.36205739  energy(sigma->0) =      572.36205739


--------------------------------------------------------------------------------------------------------




--------------------------------------- Iteration      1(   3)  ---------------------------------------


     EDDAV:  cpu time   85.1732: real time   85.4746
       DOS:  cpu time    0.0012: real time    0.0012
    --------------------------------------------
      LOOP:  cpu time   85.1744: real time   85.4758

 eigenvalue-minimisations  :  9064
 total energy-change (2. order) :-0.2607774E+04  (-0.2596838E+04)
 number of electron    1264.0000000 magnetization 
 augmentation part     1264.0000000 magnetization 

 DIPCOR: dipole corrections for dipol
 direction  3 min pos    77,
 dipolmoment           0.000000      0.000000      6.475695 electrons x Angstroem
 Tr[quadrupol]    -96191.993498

 energy correction for charged system         0.000000 eV
 dipol+quadrupol energy correction           -0.340949 eV
 added-field ion interaction        887.318447 eV  (added to PSCEN)


 Free energy of the ion-electron system (eV)
  ---------------------------------------------------
  alpha Z        PSCENC =      1382.29430561
  Ewald energy   TEWEN  =    308459.53549521
  -Hartree energ DENC   =   -370825.16851715
[...]
     18.99147      8.41637     13.98860        -0.001658     -0.010147      0.004395
     23.03101      1.31524     14.00994         0.000986      0.002752     -0.001702
     11.81937      8.45613     17.00470         0.011350     -0.001302     -0.002365
      0.80854     16.67059     11.54386        -0.109876      0.454788     -0.311951
     22.54593      5.49427      9.44299         0.182989     -0.184965      0.402221
      1.63005      6.09065     10.11814         0.298482     -0.129540     -0.038294
      4.87647     13.20394     10.62861         0.412320     -0.177549      0.398506
      0.91073      7.59465     13.41772         0.453696      0.022964      0.168149
      5.61214      5.19819     15.79504        -0.005704     -0.012643      0.004717
      9.32852      3.56896     17.35376        -0.005147     -0.018333      0.001492
     10.63756     10.25596     15.57668         0.006807     -0.010386      0.003058
     21.31336     13.57542     14.98724        -0.002669      0.002027      0.000541
     20.34739      1.95788     11.88993        -0.074234     -0.037322      0.417268
     13.40476     12.09288     10.11169        -0.263429      0.185236      0.068470
      3.33439      2.88355     10.10740        -0.023921     -0.057123      0.180256
      8.21948     13.86909     16.30215         0.004472     -0.009889      0.000925
     21.32760     15.31331     12.98949         0.328104     -1.488707      0.176283
      1.43600      9.72878     11.88926         0.540970      0.267197      0.061284
     16.58313     10.06030     11.28988        -0.101091     -0.564109     -0.051282
      1.76725     14.80155     12.98451        -0.014361     -6.380130      0.309077
     16.39879     14.99633     11.63069         1.818163     -3.805657     -0.219439
     17.09676      0.89233     14.59608        -0.000556      0.005711     -0.004506
     21.53422      5.47567     17.00034        -0.007684     -0.015467      0.001861
     17.22057     15.45235     16.47955         0.000179      0.016215     -0.007329
     14.63491      9.55703     13.07550         1.835418     -1.211379     -1.265649
     13.03010     11.41100     12.56124        -3.533084     -3.002513      1.972564
      9.95666      4.50431     14.93964         0.001995      0.006811      0.004622
     22.90304     13.19668     12.81787         0.435423      0.302105      0.204582
     15.32722     10.76668     17.01619        -0.000005     -0.000804      0.010570
      9.28179     13.55285     13.84380        -0.007460      0.002632     -0.009321
     14.10975      9.38074     10.36813         0.280481     -0.134336      0.349568
     16.88377     11.42117     14.97419        -0.011572      0.001071      0.002077
      3.48020      6.63900     16.72815        -0.011699     -0.010067      0.004393
      1.55357      9.93522     14.57335        -0.004285      0.000860     -0.005980
     19.16910     16.02802     14.42131         0.016425      0.005073      0.017670
     19.38960      6.44002     12.14868        -0.142067      0.237964      0.169919
     12.35217      5.37363     14.30655         0.005215      0.025389      0.032229
     17.27085      9.03885     16.02258        -0.000004     -0.002939      0.004250
     13.05025      3.12466     10.61647        -1.369371     -1.805998      0.507433
     18.86866      4.64651     10.30420        -0.045917     -0.025824      0.742713
      5.55892     17.27408     13.65459        -0.828297      0.211168     -0.985416
     16.22945     14.05652     14.56389         0.012756      0.005531     -0.008127
     21.62247     17.21365     14.86421         0.014455      0.000639      0.008774
     12.30819      5.75859     10.71453        -7.856185      6.650089      3.171453
     10.93727     18.00026     14.69238         0.002825      0.000628      0.006219
     19.61257      1.71792     14.50841         0.001331      0.003361      0.000700
     12.59301      2.10963     13.07169        -2.087371      0.597793     -1.086741
      8.19848      3.38158     11.81891        -0.117831      0.159100      0.025757
      0.27532     17.44013      9.01248        -0.251401      0.112944      0.306901
     10.60770     10.86142     18.10990         0.002932      0.003468      0.008299
     15.33358     16.76935     10.19493        -0.564954      0.132948      0.605414
      1.78613     12.43164     11.71795         0.027117     -0.143336      0.070346
     10.64416      7.35211     14.86189        -0.012984      0.007412      0.001909
     16.83786     12.69249     10.20447        -0.042977      0.272564      0.465346
     10.61297     12.84105     16.07255         0.023641     -0.012468     -0.039680
     17.61819     12.85384     12.80443        -0.347846      0.230387     -1.097214
     18.24236      2.19192     16.68891        -0.020751     -0.000424      0.002073
     23.25384      5.58159     12.05458         0.267464      0.004843     -0.037258
     12.58466      9.22321     14.41898        -0.002064     -0.019966     -0.016719
     19.12182      9.04362     11.38355         0.336503     -0.392683      0.461005
      5.53546      2.65430     16.28202        -0.012612     -0.006925      0.007511
      4.76498     15.05334     12.64953         0.585191     -6.671330      0.313403
      5.61649     10.13466     14.05170         0.003357     -0.006808      0.003292
      1.43148     11.32965     16.77172        -0.000059     -0.002052     -0.009646
      1.07865     10.91527      9.52151         0.180465      0.217642      0.421697
     18.75011     17.73430     16.27761         0.002903      0.007141      0.012057
     12.59506      0.50191     10.87440        -0.220823      0.386904      0.151862
     14.21002      5.68394     16.24895         0.032344     -0.018358      0.004705
     20.16991      0.07395      9.92551        -0.070825      0.005938      0.279434
      2.22200      2.70048     12.55675        -0.022319     -0.032104     -0.805149
      4.01533      3.70392     14.27435        -0.004008     -0.004538      0.002227
     15.00637     12.76530     12.22697         2.667946      0.227884     -0.671669
     10.22577      7.42551     10.38809         0.257585     -0.699106      0.501013
     13.43268      1.06470     15.35887        -0.013253      0.006219      0.004120
      3.54535     10.75329     10.45651        -0.002891      0.694826      0.068197
      6.26814     10.91510     10.54651         0.144678      0.307112      0.022805
     10.30702      5.83863     12.64390         0.434475      0.131879     -0.601817
      5.57211      2.87242     11.55719         0.320636      0.280719     -0.371341
      1.71552      2.70618     15.12043        -0.007467      0.021021      0.003236
     19.79320      9.88554     16.10545        -0.010370     -0.007878     -0.001772
     14.54261      5.07286     11.04652         1.390802      0.653474      0.848616
     14.10921     16.15557     12.56054        23.558549     14.652764     -4.549126
      0.73477      3.53889     10.45741         0.415257      0.160201      0.260757
     14.22414      3.53224     14.72743         0.009074      0.001826     -0.002579
      3.10901     17.00415     12.89023         0.001997     -0.143235     -0.334321
      1.87534      5.07721     13.76248         0.003332      0.010717     -0.024773
      8.70701      1.93603     15.30320        -0.003423     -0.003625     -0.037719
      1.55641     12.62093     14.39794         0.011232      0.002827      0.000937
     15.60336      7.52729     11.56016        -0.323354      0.173071      0.455543
     18.72851     13.22400     15.16220        -0.000476     -0.000289     -0.007354
     16.47777     17.34580     12.64014        -0.774552      0.377101     -0.214980
     14.05930     11.54079     14.84435        -0.019941     -0.018919      0.012528
     16.92263      5.32193     12.14236         0.223541      0.057892     -0.018969
     22.88415      5.69467     14.70984         0.004614     -0.003556     -0.005721
      3.70588     11.41447     15.34231         0.004438      0.002293      0.004509
     14.82717      5.92171     13.65139         0.408085      0.271601     -0.782658
     19.24123      7.20269     16.29824        -0.002575     -0.004736     -0.014940
     22.44156      0.49368     11.20910        -0.287284     -0.373162     -0.343461
      6.60307      3.53941     13.94253        -0.003519     -0.010859      0.002219
      5.83544      8.02830     12.39473        -0.041582     -0.698105     -0.613067
      6.40219     15.41100     15.28072         0.007079      0.010966      0.003836
      4.76814     12.42343     13.08921         0.227772      0.574260     -0.406951
      3.44435      8.62698     13.24127        -0.276053      0.076808      0.193095
      5.26630      7.67415     14.97072        -0.006732     -0.016186     -0.010755
     21.33745      8.20429     12.73516        -0.252442     -0.135194     -0.145460
     20.36287     12.76750     12.47801         0.326140      0.275237      0.436648
     17.28035      1.68228     11.96927        -0.176405     -0.259656      0.461579
      5.20160     16.84879     10.96698        -0.329998      0.377346      0.344357
      5.97007      7.28489     17.45333         0.006318     -0.007864     -0.020341
     14.77522     16.00634     15.94694         0.010120      0.006645      0.003741
      9.60386     14.29879     11.38342        -0.517025     -0.394361      0.226434
     21.48622      3.55246     13.66334        -0.758116     -0.046293     -0.122929
      3.10310      8.03742      8.93261         0.096473     -0.240746      0.307184
      3.63221      5.50022      8.34891        -0.160439      0.561379      0.355815
      8.73253      2.37220      9.35416         0.186285      0.602634      0.326750
      0.83199      5.31292     17.01428        -0.003809     -0.014572     -0.004496
     13.40740      4.65477      8.60536        -0.198793      0.166554      0.210423
      5.76339     13.98012     17.47484         0.002874      0.012232     -0.000558
      4.85490     11.74990      8.34377         0.083854     -0.129366      0.510448
      6.44687      7.10699      9.87630         0.022607      0.046107      0.690865
      8.55334     10.82901      9.20005        -0.081245     -0.027834      0.727152
      5.29987      1.01807      9.62744        -0.071030      0.793931      0.103563
      5.64688      3.55318      8.85385        -0.374412     -0.054743      0.442353
     11.73545     16.16961     12.22768        -2.223942      1.054009     -0.704761
     12.87992     15.00568     14.36560         0.013499      0.009537     -0.001527
     12.77267     11.71124     17.00964         0.012263     -0.009052      0.018477
     11.19751      2.24816     16.04139        -0.010290     -0.003977      0.010727
      6.13716     12.59966     15.28644         0.006062     -0.000770     -0.007798
     10.33974     15.40366     15.61058        -0.010467      0.002115      0.012076
     17.93772     11.18688     17.46338        -0.003424      0.013144     -0.002700
     19.79314     15.07978     16.74034        -0.013243     -0.009208      0.017720
     14.99937     13.40808     16.70974        -0.016202     -0.009175     -0.014586
      0.18713      0.60203     16.20932        -0.002915      0.004035      0.008638
      6.64257      0.06065     15.95719         0.005855      0.019276     -0.023356
     11.76549     17.63652     16.90428        -0.005385      0.001852     -0.000293
     12.81896      9.38397     19.80544        -0.001319      0.001639      0.003537
      1.94841     10.98909     10.92575        -0.061166     -0.118194      0.082887
      9.58368     13.91423     15.42819        -0.000161     -0.002429     -0.005449
     19.70678      7.99968     12.57709         0.143728     -0.208793     -0.263715
      0.40009     17.94876     10.58160         0.090948     -0.144544      0.355114
      0.34415      5.14988     10.51358         0.037093      0.031311      0.103729
      0.22379      2.07911     15.38855         0.000118      0.008123      0.004191
     14.29087     11.92545     16.41657        -0.008245     -0.001665      0.002629
      5.01080      8.63177     13.70180         0.001371      0.002152     -0.000385
     21.42279     13.69170     13.34099         0.250193      0.236604     -0.624982
     12.18742      2.00159     11.45195         0.162192     -0.084837      0.520740
      9.79588      3.10230     15.85181         0.001332      0.006563     -0.004960
      1.95373      2.52197     10.94102         0.070572     -0.120945      0.097576
     16.43234      0.81267     13.10088         0.117283     -0.093838     -0.282449
     15.56990     16.27355     11.76084        -0.480074      4.530868     -0.176176
     15.21965      9.13359     11.56390         0.047202      0.110036      0.273723
      4.64622     16.53531     12.47363        -0.697281      6.158968     -0.305432
      5.04591      6.66387     16.23716         0.008014     -0.005542     -0.002359
     15.78190     14.74036     15.99134        -0.004198      0.014469     -0.010754
      5.07145     11.63519     14.48143         0.007995     -0.000639     -0.004033
      8.63383     13.32142     12.34509        -0.377520      0.061202     -0.111113
     18.67502     16.09981     16.01019         0.000938      0.000575      0.012374
     20.59469     16.53017     13.76273         0.003541     -0.001262      0.003507
     13.52075     10.43350     13.78490        -0.015649     -0.012777     -0.002627
     13.80705      2.08649     14.12121        -0.002762     -0.000406     -0.000697
     20.08975      2.75648     13.31200        -0.163368     -0.005143     -0.420895
     19.57448     10.94966     17.35816        -0.001973     -0.001660     -0.009411
      3.13099      6.52942      9.59393        -0.095950     -0.118967      0.081341
     18.51026      5.07285     11.87902        -0.240638      0.094807      0.110979
      9.34523      3.21643     10.64590        -0.128952     -0.313311      0.269654
     20.05239     13.59856     16.03589        -0.003774      0.000919     -0.002912
      6.62708     16.95464     14.77730         0.005872      0.003943     -0.002372
      0.54021      5.98812     13.50205         0.305950      0.185980     -0.402487
     13.45118     12.60314     11.70944         3.912363     -0.861729     -2.412393
      5.39024     13.63805     12.15046         0.164883     -0.584092      0.049338
     13.90673      5.13600     14.73343         0.010848      0.003638      0.011328
     22.84780      4.93868     16.20063        -0.006153     -0.003268      0.003865
     20.81045      0.46044     11.40393         0.009621      0.037849      0.159385
      2.45338      3.53961     13.92087        -0.001866      0.004676     -0.003039
      1.12715     13.28354     12.97472        -0.172756     -0.583942     -0.227611
      5.43231      3.74344     15.08212        -0.007509     -0.012134     -0.004219
     13.14328      4.67139     10.24864         8.330419     -5.365016     -3.550538
     11.16282     11.42589     16.67016        -0.003504     -0.003265      0.004656
      6.60007     13.97349     16.06826         0.006675     -0.000232     -0.004659
      4.88127     11.65920      9.99509         0.076351     -0.051057      0.062579
     17.34612     12.87347     14.40841        -0.001645      0.006115     -0.003831
     23.09271     17.94793     14.79457         0.011864      0.005055      0.002102
     16.46059     13.35206     11.67438        -0.696267     -1.366431      0.437631
     18.44888      1.07667     15.50499        -0.002997     -0.004247      0.001777
     10.68290      5.95195     11.00304        -1.155472      0.546634      0.501656
     10.50288     17.00320     15.98243        -0.007733      0.002387     -0.001594
     11.89309      0.77340     15.76773        -0.007808     -0.005373      0.003426
      5.71814      6.71222     11.31648         0.025131     -0.117756     -0.075110
     15.41693      5.98005     12.10687        -0.117237     -0.453757     -0.883498
     10.78835      5.77870     14.22182         0.000081      0.010590      0.001857
      7.89661     10.69049     10.72869        -0.121758     -0.053090     -0.008034
     18.82836      8.64160     15.59101        -0.006670     -0.010477      0.003947
      1.62029     16.28844     12.91761        -0.346858      6.425536     -0.503322
      4.96103      2.61769     10.04353        -0.076264     -0.040256      0.096344
      1.83153      8.95162     13.29887         0.021678     -0.122349     -0.275383
     13.05344     15.44546     12.76235       -22.314020    -15.859930      4.771457
     16.83590     10.59349     16.39405        -0.007804      0.009344      0.007422
      6.71066      3.80730     12.34244        -0.208574      0.019260     -0.770286
      2.06198     11.33221     15.26395         0.003154      0.002090     -0.005113
      8.25815      0.38332     15.55570        -0.003163      0.005213     -0.016851
     11.37519      8.75272     15.43118        -0.005831      0.001524      0.004400
     11.45621      9.21454     18.77301         0.002682      0.011449      0.009831
 -----------------------------------------------------------------------------------
    total drift:                                0.172339      0.175668      0.280439


--------------------------------------------------------------------------------------------------------



  FREE ENERGIE OF THE ION-ELECTRON SYSTEM (eV)
  ---------------------------------------------------
  free  energy   TOTEN  =     -1903.61402040 eV

  energy  without entropy=    -1903.61402040  energy(sigma->0) =    -1903.61402040

 d Force = 0.1012961E-02[ 0.340E-03, 0.169E-02]  d Energy = 0.9767525E-03 0.362E-04
 d Force =-0.8564866E+00[-0.859E+00,-0.854E+00]  d Ewald  =-0.8564866E+00-0.318E-07


--------------------------------------------------------------------------------------------------------


    POTLOK:  cpu time    0.8347: real time    0.8370


--------------------------------------------------------------------------------------------------------


 stress matrix after NEB project (eV)
    -32.67372      0.03255      0.60125
      0.03255    -33.50948      0.02527
      0.60125      0.02527    -25.12354
  FORCES: max atom, RMS     0.047842    0.011009
  FORCE total and by dimension    0.183895    0.039680
  Stress total and by dimension   53.126035   33.509481
 Quasi-Newton relaxation of ions (Broydens 2nd method)
  g(Force)  = 0.163E-02   g(Stress)= 0.000E+00

 retain information from N=  1 steps
 eigenvalues of (default step * inverse Hessian matrix)
  average eigenvalue of G=   0.2474
 eigenvalue spectrum of G is  0.2474


--------------------------------------------------------------------------------------------------------


  
 reached required accuracy - stopping structural energy minimisation
     LOOP+:  cpu time  182.1711: real time  182.8188
    4ORBIT:  cpu time    0.0000: real time    0.0000

 total amount of memory used by VASP MPI-rank0   703413. kBytes
=======================================================================

   base      :      30000. kBytes
   nonlr-proj:      17124. kBytes
   fftplans  :      30982. kBytes
   grid      :      57864. kBytes
   one-center:       1088. kBytes
   wavefun   :     566355. kBytes

  
  
 General timing and accounting informations for this job:
 ========================================================
  
                  Total CPU time used (sec):     2862.729
                            User time (sec):     2857.477
                          System time (sec):        5.252
                         Elapsed time (sec):     2873.908
  
                   Maximum memory used (kb):     1000944.
                   Average memory used (kb):           0.
  
                          Minor page faults:      7242290
                          Major page faults:          184
                 Voluntary context switches:         6369
