 vasp.5.4.4.18Apr17-6-g9f103f2a35 (build Oct 20 2021 08:33:53) complex           
 executed on             LinuxGNU date 2024.03.19  22:54:21
 running on   32 total cores
 distrk:  each k-point on   32 cores,    1 groups
 distr:  one band on NCORES_PER_BAND=   4 cores,    8 groups


--------------------------------------------------------------------------------------------------------


 INCAR:
 POTCAR:    PAW_PBE C 08Apr2002                   
 POTCAR:    PAW_PBE H 15Jun2001                   
 POTCAR:    PAW_PBE O 08Apr2002                   
 POTCAR:    PAW_PBE Si 05Jan2001                  
 POTCAR:    PAW_PBE W 08Apr2002                   
 POTCAR:    PAW_PBE C 08Apr2002                   
   VRHFIN =C: s2p2                                                              
   LEXCH  = PE                                                                  
   EATOM  =   147.1560 eV,   10.8157 Ry                                         
                                                                                
   TITEL  = PAW_PBE C 08Apr2002                                                 
   LULTRA =        F    use ultrasoft PP ?                                      
   IUNSCR =        1    unscreen: 0-lin 1-nonlin 2-no                           
   RPACOR =    1.200    partial core radius                                     
   POMASS =   12.011; ZVAL   =    4.000    mass and valenz                      
   RCORE  =    1.500    outmost cutoff radius                                   
   RWIGS  =    1.630; RWIGS  =    0.863    wigner-seitz radius (au A)           
   ENMAX  =  400.000; ENMIN  =  300.000 eV                                      
   ICORE  =        2    local potential                                         
   LCOR   =        T    correct aug charges                                     
   LPAW   =        T    paw PP                                                  
   EAUG   =  644.873                                                            
   DEXC   =    0.000                                                            
   RMAX   =    1.529    core radius for proj-oper                               
   RAUG   =    1.300    factor for augmentation sphere                          
   RDEP   =    1.501    radius for radial grids                                 
   RDEPT  =    1.300    core radius for aug-charge                              
                                                                                
   Atomic configuration                                                         
    4 entries                                                                   
     n  l   j            E        occ.                                          
     1  0  0.50      -273.3789   2.0000                                         
     2  0  0.50       -13.7508   2.0000                                         
     2  1  0.50        -5.2854   2.0000                                         
     3  2  1.50        -5.4423   0.0000                                         
   Description                                                                  
     l       E           TYP  RCUT    TYP  RCUT                                 
     0    -13.7508458     23  1.200                                             
     0     -8.2022199     23  1.200                                             
     1     -5.2854383     23  1.500                                             
     1     34.0145650     23  1.500                                             
     2     -5.4423304      7  1.500                                             
  local pseudopotential read in
  partial core-charges read in
  partial kinetic energy density read in
  atomic valenz-charges read in
  non local Contribution for L=           0  read in
    real space projection operators read in
  non local Contribution for L=           0  read in
    real space projection operators read in
  non local Contribution for L=           1  read in
    real space projection operators read in
  non local Contribution for L=           1  read in
    real space projection operators read in
    PAW grid and wavefunctions read in

   number of l-projection  operators is LMAX  =           4
   number of lm-projection operators is LMMAX =           8

 POTCAR:    PAW_PBE H 15Jun2001                   
   VRHFIN =H: ultrasoft test                                                    
   LEXCH  = PE                                                                  
   EATOM  =    12.4884 eV,    0.9179 Ry                                         
                                                                                
   TITEL  = PAW_PBE H 15Jun2001                                                 
   LULTRA =        F    use ultrasoft PP ?                                      
   IUNSCR =        0    unscreen: 0-lin 1-nonlin 2-no                           
   RPACOR =    0.000    partial core radius                                     
   POMASS =    1.000; ZVAL   =    1.000    mass and valenz                      
   RCORE  =    1.100    outmost cutoff radius                                   
   RWIGS  =    0.700; RWIGS  =    0.370    wigner-seitz radius (au A)           
   ENMAX  =  250.000; ENMIN  =  200.000 eV                                      
   RCLOC  =    0.701    cutoff for local pot                                    
   LCOR   =        T    correct aug charges                                     
   LPAW   =        T    paw PP                                                  
   EAUG   =  400.000                                                            
   RMAX   =    1.123    core radius for proj-oper                               
   RAUG   =    1.200    factor for augmentation sphere                          
   RDEP   =    1.112    radius for radial grids                                 
   RDEPT  =    0.926    core radius for aug-charge                              
                                                                                
   Atomic configuration                                                         
    2 entries                                                                   
     n  l   j            E        occ.                                          
     1  0  0.50        -6.4927   1.0000                                         
     2  1  0.50        -3.4015   0.0000                                         
   Description                                                                  
     l       E           TYP  RCUT    TYP  RCUT                                 
     0     -6.4927494     23  1.100                                             
     0      6.8029130     23  1.100                                             
     1     -4.0817478     23  1.100                                             
  local pseudopotential read in
  atomic valenz-charges read in
  non local Contribution for L=           0  read in
    real space projection operators read in
  non local Contribution for L=           0  read in
    real space projection operators read in
  non local Contribution for L=           1  read in
    real space projection operators read in
    PAW grid and wavefunctions read in

   number of l-projection  operators is LMAX  =           3
   number of lm-projection operators is LMMAX =           5

 POTCAR:    PAW_PBE O 08Apr2002                   
   VRHFIN =O: s2p4                                                              
   LEXCH  = PE                                                                  
   EATOM  =   432.3788 eV,   31.7789 Ry                                         
                                                                                
   TITEL  = PAW_PBE O 08Apr2002                                                 
   LULTRA =        F    use ultrasoft PP ?                                      
   IUNSCR =        1    unscreen: 0-lin 1-nonlin 2-no                           
   RPACOR =    1.200    partial core radius                                     
   POMASS =   16.000; ZVAL   =    6.000    mass and valenz                      
   RCORE  =    1.520    outmost cutoff radius                                   
   RWIGS  =    1.550; RWIGS  =    0.820    wigner-seitz radius (au A)           
   ENMAX  =  400.000; ENMIN  =  300.000 eV                                      
   ICORE  =        2    local potential                                         
   LCOR   =        T    correct aug charges                                     
   LPAW   =        T    paw PP                                                  
   EAUG   =  605.392                                                            
   DEXC   =    0.000                                                            
   RMAX   =    1.553    core radius for proj-oper                               
   RAUG   =    1.300    factor for augmentation sphere                          
   RDEP   =    1.550    radius for radial grids                                 
   RDEPT  =    1.329    core radius for aug-charge                              
                                                                                
   Atomic configuration                                                         
    4 entries                                                                   
     n  l   j            E        occ.                                          
     1  0  0.50      -514.6923   2.0000                                         
     2  0  0.50       -23.9615   2.0000                                         
     2  1  0.50        -9.0305   4.0000                                         
     3  2  1.50        -9.5241   0.0000                                         
   Description                                                                  
     l       E           TYP  RCUT    TYP  RCUT                                 
     0    -23.9615318     23  1.200                                             
     0     -9.5240782     23  1.200                                             
     1     -9.0304911     23  1.520                                             
     1      8.1634956     23  1.520                                             
     2     -9.5240782      7  1.500                                             
  local pseudopotential read in
  partial core-charges read in
  partial kinetic energy density read in
  kinetic energy density of atom read in
  atomic valenz-charges read in
  non local Contribution for L=           0  read in
    real space projection operators read in
  non local Contribution for L=           0  read in
    real space projection operators read in
  non local Contribution for L=           1  read in
    real space projection operators read in
  non local Contribution for L=           1  read in
    real space projection operators read in
    PAW grid and wavefunctions read in

   number of l-projection  operators is LMAX  =           4
   number of lm-projection operators is LMMAX =           8

 POTCAR:    PAW_PBE Si 05Jan2001                  
   VRHFIN =Si: s2p2                                                             
   LEXCH  = PE                                                                  
   EATOM  =   103.0669 eV,    7.5752 Ry                                         
                                                                                
   TITEL  = PAW_PBE Si 05Jan2001                                                
   LULTRA =        F    use ultrasoft PP ?                                      
   IUNSCR =        1    unscreen: 0-lin 1-nonlin 2-no                           
   RPACOR =    1.500    partial core radius                                     
   POMASS =   28.085; ZVAL   =    4.000    mass and valenz                      
   RCORE  =    1.900    outmost cutoff radius                                   
   RWIGS  =    2.480; RWIGS  =    1.312    wigner-seitz radius (au A)           
   ENMAX  =  245.345; ENMIN  =  184.009 eV                                      
   ICORE  =        2    local potential                                         
   LCOR   =        T    correct aug charges                                     
   LPAW   =        T    paw PP                                                  
   EAUG   =  322.069                                                            
   DEXC   =    0.000                                                            
   RMAX   =    1.950    core radius for proj-oper                               
   RAUG   =    1.300    factor for augmentation sphere                          
   RDEP   =    1.993    radius for radial grids                                 
   RDEPT  =    1.837    core radius for aug-charge                              
                                                                                
   Atomic configuration                                                         
    6 entries                                                                   
     n  l   j            E        occ.                                          
     1  0  0.50     -1785.8828   2.0000                                         
     2  0  0.50      -139.4969   2.0000                                         
     2  1  1.50       -95.5546   6.0000                                         
     3  0  0.50       -10.8127   2.0000                                         
     3  1  0.50        -4.0811   2.0000                                         
     3  2  1.50        -4.0817   0.0000                                         
   Description                                                                  
     l       E           TYP  RCUT    TYP  RCUT                                 
     0    -10.8127223     23  1.900                                             
     0     -7.6451159     23  1.900                                             
     1     -4.0811372     23  1.900                                             
     1      2.4879257     23  1.900                                             
     2     -4.0817478      7  1.900                                             
  local pseudopotential read in
  partial core-charges read in
  partial kinetic energy density read in
  atomic valenz-charges read in
  non local Contribution for L=           0  read in
    real space projection operators read in
  non local Contribution for L=           0  read in
    real space projection operators read in
  non local Contribution for L=           1  read in
    real space projection operators read in
  non local Contribution for L=           1  read in
    real space projection operators read in
    PAW grid and wavefunctions read in

   number of l-projection  operators is LMAX  =           4
   number of lm-projection operators is LMMAX =           8

 POTCAR:    PAW_PBE W 08Apr2002                   
   VRHFIN =W : 6s5d                                                             
   LEXCH  = PE                                                                  
   EATOM  =   204.6103 eV,   15.0384 Ry                                         
                                                                                
   TITEL  = PAW_PBE W 08Apr2002                                                 
   LULTRA =        F    use ultrasoft PP ?                                      
   IUNSCR =        1    unscreen: 0-lin 1-nonlin 2-no                           
   RPACOR =    2.330    partial core radius                                     
   POMASS =  183.850; ZVAL   =    6.000    mass and valenz                      
   RCORE  =    2.750    outmost cutoff radius                                   
   RWIGS  =    2.750; RWIGS  =    1.455    wigner-seitz radius (au A)           
   ENMAX  =  223.057; ENMIN  =  167.293 eV                                      
   RCLOC  =    2.147    cutoff for local pot                                    
   LCOR   =        T    correct aug charges                                     
   LPAW   =        T    paw PP                                                  
   EAUG   =  373.438                                                            
   DEXC   =    0.000                                                            
   RMAX   =    2.801    core radius for proj-oper                               
   RAUG   =    1.300    factor for augmentation sphere                          
   RDEP   =    2.886    radius for radial grids                                 
   RDEPT  =    2.230    core radius for aug-charge                              
                                                                                
   Atomic configuration                                                         
   16 entries                                                                   
     n  l   j            E        occ.                                          
     1  0  0.50    -69465.5836   2.0000                                         
     2  0  0.50    -11986.2642   2.0000                                         
     2  1  1.50    -10479.8616   6.0000                                         
     3  0  0.50     -2759.0758   2.0000                                         
     3  1  1.50     -2313.1857   6.0000                                         
     3  2  2.50     -1801.1185  10.0000                                         
     4  0  0.50      -567.6791   2.0000                                         
     4  1  1.50      -421.4694   6.0000                                         
     4  2  2.50      -236.3473  10.0000                                         
     4  3  3.50       -31.2666  14.0000                                         
     5  0  0.50       -77.1085   2.0000                                         
     5  1  1.50       -41.3856   6.0000                                         
     5  2  2.50        -3.3185   5.0000                                         
     6  0  0.50        -5.1438   1.0000                                         
     6  1  0.50        -3.8096   0.0000                                         
     5  3  2.50        -1.3606   0.0000                                         
   Description                                                                  
     l       E           TYP  RCUT    TYP  RCUT                                 
     2     -3.3185288     23  2.500                                             
     2     -1.5965414     23  2.500                                             
     0     -5.1438054     23  2.500                                             
     0      4.9117504     23  2.500                                             
     1      2.7211652     23  2.750                                             
     1     27.2116520     23  2.750                                             
  local pseudopotential read in
  partial core-charges read in
  partial kinetic energy density read in
  atomic valenz-charges read in
  non local Contribution for L=           2  read in
    real space projection operators read in
  non local Contribution for L=           2  read in
    real space projection operators read in
  non local Contribution for L=           0  read in
    real space projection operators read in
  non local Contribution for L=           0  read in
    real space projection operators read in
  non local Contribution for L=           1  read in
    real space projection operators read in
  non local Contribution for L=           1  read in
    real space projection operators read in
    PAW grid and wavefunctions read in

   number of l-projection  operators is LMAX  =           6
   number of lm-projection operators is LMMAX =          18

 Optimization of the real space projectors (new method)

 maximal supplied QI-value         = 25.13
 optimisation between [QCUT,QGAM] = [ 11.31, 22.87] = [ 35.82,146.48] Ry 
 Optimized for a Real-space Cutoff    1.00 Angstroem

   l    n(q)    QCUT    max X(q) W(low)/X(q) W(high)/X(q)  e(spline) 
   0      7    11.310   115.676    0.43E-03    0.13E-02    0.19E-06
   0      7    11.310    87.132    0.43E-03    0.13E-02    0.18E-06
   1      6    11.310     4.429    0.42E-03    0.74E-03    0.11E-06
   1      6    11.310     2.733    0.34E-03    0.55E-03    0.92E-07
 Optimization of the real space projectors (new method)

 maximal supplied QI-value         = 34.20
 optimisation between [QCUT,QGAM] = [ 11.29, 22.57] = [ 35.68,142.71] Ry 
 Optimized for a Real-space Cutoff    1.16 Angstroem

   l    n(q)    QCUT    max X(q) W(low)/X(q) W(high)/X(q)  e(spline) 
   0      8    11.287    19.460    0.40E-03    0.73E-03    0.16E-06
   0      8    11.287    12.209    0.38E-03    0.70E-03    0.15E-06
   1      7    11.287     4.655    0.22E-03    0.25E-04    0.22E-06
 Optimization of the real space projectors (new method)

 maximal supplied QI-value         = 24.76
 optimisation between [QCUT,QGAM] = [ 11.39, 22.77] = [ 36.31,145.25] Ry 
 Optimized for a Real-space Cutoff    1.00 Angstroem

   l    n(q)    QCUT    max X(q) W(low)/X(q) W(high)/X(q)  e(spline) 
   0      7    11.387    20.381    0.39E-03    0.13E-02    0.15E-06
   0      7    11.387    15.268    0.42E-03    0.14E-02    0.17E-06
   1      6    11.387     5.964    0.41E-03    0.11E-02    0.17E-06
   1      6    11.387     5.382    0.39E-03    0.87E-03    0.15E-06
 Optimization of the real space projectors (new method)

 maximal supplied QI-value         = 19.84
 optimisation between [QCUT,QGAM] = [ 11.31, 22.82] = [ 35.82,145.81] Ry 
 Optimized for a Real-space Cutoff    1.16 Angstroem

   l    n(q)    QCUT    max X(q) W(low)/X(q) W(high)/X(q)  e(spline) 
   0      8    11.310   159.560    0.27E-03    0.30E-03    0.39E-07
   0      8    11.310   115.863    0.27E-03    0.30E-03    0.38E-07
   1      7    11.310    88.339    0.28E-03    0.28E-03    0.77E-07
   1      7    11.310    48.592    0.27E-03    0.27E-03    0.74E-07
 Optimization of the real space projectors (new method)

 maximal supplied QI-value         = 13.61
 optimisation between [QCUT,QGAM] = [ 11.43, 22.86] = [ 36.58,146.31] Ry 
 Optimized for a Real-space Cutoff    1.56 Angstroem

   l    n(q)    QCUT    max X(q) W(low)/X(q) W(high)/X(q)  e(spline) 
   2     10    11.429   130.855    0.22E-03    0.64E-03    0.11E-05
   2     10    11.429   114.007    0.22E-03    0.64E-03    0.11E-05
   0     11    11.429    84.709    0.39E-04    0.67E-04    0.23E-06
   0     11    11.429    49.163    0.35E-04    0.62E-04    0.21E-06
   1     10    11.429    15.765    0.84E-04    0.15E-03    0.24E-06
   1     10    11.429    10.638    0.58E-04    0.12E-03    0.19E-06

 ----------------------------------------------------------------------------- 
|                                                                             |
|  ADVICE TO THIS USER RUNNING 'VASP/VAMP'   (HEAR YOUR MASTER'S VOICE ...):  |
|                                                                             |
|      You enforced a specific xc-type in the INCAR file,                     |
|      a different type was found on the POTCAR file                          |
|          I HOPE YOU KNOW, WHAT YOU ARE  DOING                               |
|                                                                             |
 ----------------------------------------------------------------------------- 

  PAW_PBE C 08Apr2002                   :
 energy of atom  1       EATOM= -147.1560
 kinetic energy error for atom=    0.0076 (will be added to EATOM!!)
  PAW_PBE H 15Jun2001                   :
 energy of atom  2       EATOM=  -12.4884
 kinetic energy error for atom=    0.0020 (will be added to EATOM!!)
  PAW_PBE O 08Apr2002                   :
 energy of atom  3       EATOM= -432.3788
 kinetic energy error for atom=    0.0224 (will be added to EATOM!!)
  PAW_PBE Si 05Jan2001                  :
 energy of atom  4       EATOM= -103.0669
 kinetic energy error for atom=    0.0006 (will be added to EATOM!!)
  PAW_PBE W 08Apr2002                   :
 energy of atom  5       EATOM= -204.6103
 kinetic energy error for atom=    0.0017 (will be added to EATOM!!)


 POSCAR:  C  H  O Si  W                          
  positions in direct lattice
  velocities in cartesian coordinates
 exchange correlation table for  LEXCH =        9
   RHO(1)=    0.500       N(1)  =     2000
   RHO(2)=  100.500       N(2)  =     4000

 VTST: version 3.2, (02/03/18)

 CHAIN: initializing optimizer
 
 OPT: Using VASP QUASI-newton optimizer
 CHAIN: Read ICHAIN            0

 POSCAR:  C  H  O Si  W                          
  positions in direct lattice
  velocities in cartesian coordinates



--------------------------------------------------------------------------------------------------------


 ion  position               nearest neighbor table
   1  0.546  0.584  0.810-  48 1.09  47 1.09   2 1.34
   2  0.497  0.623  0.807-  50 1.09  49 1.09   1 1.34
   3  0.761  0.105  0.651- 125 0.97
   4  0.926  0.279  0.356-  73 0.98
   5  0.793  0.207  0.373- 108 0.97
   6  0.975  0.944  0.325- 117 0.97
   7  0.626  0.963  0.375- 119 0.98
   8  0.821  0.995  0.369- 137 0.97
   9  0.750  0.141  0.458- 175 0.98
  10  0.915  0.249  0.510- 180 0.97
  11  0.583  0.304  0.306- 185 0.97
  12  0.893  0.337  0.617-  91 0.98
  13  0.585  0.355  0.617- 136 0.97
  14  0.594  0.872  0.577- 178 0.99
  15  0.034  0.337  0.652- 184 0.97
  16  0.935  0.420  0.454- 173 0.98
  17  0.746  0.530  0.422-  87 1.00
  18  0.799  0.386  0.635- 165 0.97
  19  0.591  0.569  0.378-  99 0.99
  20  0.718  0.646  0.383- 122 0.99
  21  0.841  0.542  0.420- 128 0.98
  22  0.005  0.604  0.358- 133 0.97
  23  0.828  0.712  0.468- 174 0.99
  24  0.873  0.595  0.722-  53 0.97
  25  0.520  0.986  0.422- 135 0.99
  26  0.223  0.980  0.393- 176 1.00
  27  0.216  0.238  0.319- 191 0.99
  28  0.158  0.330  0.279- 182 0.97
  29  0.342  0.156  0.331- 183 0.98
  30  0.223  0.046  0.323- 190 0.97
  31  0.512  0.825  0.547- 193 0.97
  32  0.376  0.238  0.646-  78 0.97
  33  0.244  0.092  0.597- 129 0.98
  34  0.315  0.487  0.442-  52 0.99
  35  0.409  0.439  0.406- 141 0.98
  36  0.398  0.793  0.389- 179 0.97
  37  0.244  0.655  0.294- 187 0.97
  38  0.312  0.418  0.369- 188 0.98
  39  0.405  0.584  0.339- 189 0.97
  40  0.139  0.488  0.352- 181 0.98
  41  0.593  0.698  0.352-  82 0.97
  42  0.469  0.861  0.444- 192 0.99
  43  0.122  0.323  0.611- 101 0.97
  44  0.070  0.667  0.645- 132 0.97
  45  0.240  0.387  0.683- 177 0.97
  46  0.249  0.816  0.669- 186 0.97
  47  0.587  0.610  0.818-   1 1.09
  48  0.546  0.524  0.804-   1 1.09
  49  0.497  0.683  0.812-   2 1.09
  50  0.456  0.596  0.799-   2 1.09
  51  0.369  0.648  0.439- 224 1.66 259 1.68
  52  0.347  0.504  0.420-  34 0.99 259 1.67
  53  0.862  0.564  0.694-  24 0.97 230 1.64
  54  0.350  0.958  0.529- 235 1.68 268 1.69
  55  0.034  0.932  0.529- 250 1.63 261 1.66
  56  0.636  0.079  0.489- 228 1.59 217 1.65
  57  0.069  0.052  0.395- 216 1.64 208 1.65
  58  0.452  0.130  0.421- 233 1.65 214 1.65
  59  0.806  0.214  0.483- 232 1.67 229 1.69
  60  0.973  0.181  0.598- 210 1.63 240 1.65
  61  0.275  0.299  0.449- 256 1.65 266 1.66
  62  0.556  0.775  0.442- 237 1.51 264 1.66
  63  0.393  0.971  0.618- 254 1.65 268 1.66
  64  0.178  0.350  0.405- 256 1.66 231 1.67
  65  0.867  0.686  0.638- 234 1.64 230 1.64
  66  0.866  0.967  0.467- 226 1.60 241 1.65
  67  0.301  0.761  0.458- 224 1.65 238 1.67
  68  0.422  0.261  0.380- 233 1.67 253 1.67
  69  0.811  0.466  0.520- 260 1.63 207 1.64
  70  0.984  0.072  0.521- 250 1.68 210 1.69
  71  0.518  0.444  0.626- 269 1.68 270 1.92
  72  0.035  0.920  0.429- 261 1.64 208 1.65
  73  0.963  0.303  0.351-   4 0.98 209 1.65
  74  0.070  0.336  0.376- 209 1.64 231 1.65
  75  0.208  0.729  0.395- 238 1.66 248 1.67
  76  0.039  0.419  0.499- 263 1.64 236 1.65
  77  0.240  0.285  0.588- 244 1.63 221 1.63
  78  0.397  0.192  0.644-  32 0.97 215 1.64
  79  0.462  0.555  0.594- 269 1.69 246 1.71 270 2.57
  80  0.910  0.749  0.557- 234 1.64 213 1.65
  81  0.869  0.108  0.442- 241 1.64 229 1.65
  82  0.573  0.667  0.376-  41 0.97 237 1.68
  83  0.142  0.159  0.376- 262 1.65 216 1.65
  84  0.352  0.764  0.607- 206 1.62 247 1.64
  85  0.911  0.845  0.483- 226 1.62 213 1.66
  86  0.061  0.537  0.442- 263 1.66 205 1.67
  87  0.708  0.555  0.420-  17 1.00 219 1.67
  88  0.075  0.817  0.483- 261 1.50 243 1.65
  89  0.700  0.828  0.433- 218 1.53 251 1.65
  90  0.730  0.049  0.543- 217 1.64 252 1.64
  91  0.919  0.300  0.632-  12 0.98 240 1.63
  92  0.736  0.855  0.613- 225 1.66 222 1.67
  93  0.625  0.527  0.486- 227 1.59 219 1.68
  94  0.557  0.630  0.467- 237 1.52 227 1.63
  95  0.426  0.245  0.555- 258 1.67 215 1.68
  96  0.978  0.728  0.477- 243 1.65 213 1.65
  97  0.655  0.596  0.634- 265 1.64 211 1.66
  98  0.397  0.746  0.515- 206 1.65 224 1.65
  99  0.603  0.518  0.386-  19 0.99 219 1.65
 100  0.719  0.633  0.557- 249 1.63 265 1.65
 101  0.147  0.364  0.619-  43 0.97 221 1.64
 102  0.067  0.549  0.542- 263 1.63 267 1.64
 103  0.819  0.885  0.537- 226 1.65 225 1.66
 104  0.828  0.355  0.452- 232 1.65 207 1.65
 105  0.528  0.298  0.532- 258 1.61 239 1.63
 106  0.737  0.501  0.595- 265 1.65 260 1.66
 107  0.557  0.172  0.395- 245 1.59 214 1.64
 108  0.806  0.256  0.383-   5 0.97 232 1.67
 109  0.237  0.953  0.508- 235 1.58 220 1.67
 110  0.693  0.779  0.541- 249 1.64 222 1.64
 111  0.924  0.950  0.553- 250 1.64 226 1.65
 112  0.526  0.318  0.399- 245 1.45 253 1.66
 113  0.470  0.989  0.545- 254 1.69 255 1.70
 114  0.838  0.095  0.540- 229 1.65 252 1.66
 115  0.538  0.116  0.486- 228 1.61 214 1.67
 116  0.350  0.187  0.440- 266 1.63 233 1.65
 117  0.012  0.962  0.335-   6 0.97 208 1.65
 118  0.459  0.600  0.682- 246 1.68 270 1.93
 119  0.655  0.925  0.379-   7 0.98 218 1.66
 120  0.076  0.686  0.436- 205 1.65 243 1.66
 121  0.453  0.403  0.551- 269 1.66 258 1.71
 122  0.719  0.700  0.380-  20 0.99 251 1.65
 123  0.451  0.701  0.598- 246 1.62 206 1.63
 124  0.753  0.709  0.476- 249 1.63 251 1.69
 125  0.779  0.122  0.620-   3 0.97 252 1.64
 126  0.993  0.308  0.448- 236 1.66 209 1.68
 127  0.532  0.509  0.530- 269 1.63 227 1.66
 128  0.817  0.499  0.423-  21 0.98 207 1.69
 129  0.235  0.143  0.604-  33 0.98 244 1.62
 130  0.204  0.831  0.471- 220 1.50 238 1.63
 131  0.240  0.558  0.523- 223 1.65 212 1.66
 132  0.061  0.626  0.624-  44 0.97 267 1.63
 133  0.046  0.602  0.354-  22 0.97 205 1.65
 134  0.801  0.980  0.606- 225 1.66 252 1.68
 135  0.538  0.028  0.405-  25 0.99 214 1.66
 136  0.606  0.312  0.605-  13 0.97 239 1.63
 137  0.862  0.004  0.369-   8 0.97 241 1.66
 138  0.095  0.149  0.467- 242 1.62 216 1.65
 139  0.172  0.205  0.531- 242 1.61 244 1.63
 140  0.641  0.704  0.455- 237 1.65 251 1.66
 141  0.437  0.410  0.386-  35 0.98 253 1.66
 142  0.575  0.058  0.571- 255 1.62 228 1.65
 143  0.151  0.593  0.389- 248 1.68 205 1.68
 144  0.268  0.602  0.392- 259 1.65 248 1.67
 145  0.440  0.322  0.470- 258 1.64 253 1.69
 146  0.238  0.159  0.430- 262 1.65 266 1.67
 147  0.073  0.150  0.562- 242 1.64 210 1.64
 148  0.845  0.548  0.597- 260 1.66 230 1.66
 149  0.621  0.280  0.411- 257 1.65 245 1.66
 150  0.603  0.892  0.467- 264 1.29 218 1.67
 151  0.031  0.195  0.389- 209 1.66 216 1.66
 152  0.608  0.195  0.547- 228 1.62 239 1.64
 153  0.133  0.938  0.479- 261 1.65 220 1.66
 154  0.080  0.280  0.512- 236 1.64 242 1.65
 155  0.373  0.103  0.567- 268 1.63 215 1.68
 156  0.067  0.697  0.536- 243 1.63 267 1.63
 157  0.666  0.415  0.430- 219 1.65 257 1.65
 158  0.799  0.730  0.564- 249 1.61 234 1.63
 159  0.704  0.957  0.470- 217 1.65 218 1.66
 160  0.596  0.633  0.555- 227 1.62 211 1.64
 161  0.723  0.294  0.452- 232 1.63 257 1.64
 162  0.977  0.315  0.547- 236 1.64 240 1.67
 163  0.159  0.630  0.571- 223 1.63 267 1.65
 164  0.633  0.327  0.508- 239 1.63 257 1.65
 165  0.823  0.401  0.607-  18 0.97 260 1.65
 166  0.959  0.027  0.417- 241 1.64 208 1.65
 167  0.282  0.195  0.519- 266 1.63 244 1.65
 168  0.249  0.443  0.461- 212 1.66 256 1.71
 169  0.275  0.848  0.566- 235 1.64 247 1.65
 170  0.204  0.686  0.487- 223 1.63 238 1.66
 171  0.147  0.476  0.493- 212 1.63 263 1.65
 172  0.225  0.422  0.557- 212 1.61 221 1.64
 173  0.911  0.453  0.474-  16 0.98 207 1.65
 174  0.870  0.705  0.464-  23 0.99 213 1.65
 175  0.738  0.093  0.445-   9 0.98 217 1.66
 176  0.222  0.930  0.408-  26 1.00 220 1.64
 177  0.251  0.402  0.650-  45 0.97 221 1.65
 178  0.631  0.885  0.593-  14 0.99 222 1.62
 179  0.410  0.789  0.423-  36 0.97 224 1.68
 180  0.918  0.196  0.508-  10 0.97 229 1.65
 181  0.133  0.444  0.332-  40 0.98 231 1.65
 182  0.155  0.304  0.311-  28 0.97 231 1.69
 183  0.373  0.131  0.348-  29 0.98 233 1.66
 184  0.035  0.291  0.633-  15 0.97 240 1.66
 185  0.573  0.257  0.320-  11 0.97 245 1.66
 186  0.246  0.772  0.649-  46 0.97 247 1.63
 187  0.207  0.648  0.310-  37 0.97 248 1.65
 188  0.275  0.392  0.367-  38 0.98 256 1.66
 189  0.365  0.598  0.342-  39 0.97 259 1.67
 190  0.226  0.056  0.358-  30 0.97 262 1.69
 191  0.241  0.196  0.329-  27 0.99 262 1.66
 192  0.501  0.892  0.455-  42 0.99 264 1.60
 193  0.551  0.827  0.534-  31 0.97 264 1.67
 194  0.547  0.658  0.637- 211 1.65 246 1.65
 195  0.479  0.120  0.596- 255 1.65 215 1.65
 196  0.263  0.693  0.568- 247 1.65 223 1.65
 197  0.444  0.845  0.581- 254 1.66 206 1.68
 198  0.766  0.619  0.649- 265 1.64 230 1.66
 199  0.845  0.833  0.623- 234 1.66 225 1.68
 200  0.643  0.741  0.621- 211 1.66 222 1.70
 201  0.008  0.033  0.603- 250 1.69 210 1.69
 202  0.286  0.000  0.593- 268 1.69 235 1.70
 203  0.504  0.970  0.628- 254 1.69 255 1.70
 204  0.493  0.459  0.736- 270 1.71
 205  0.083  0.606  0.406- 133 1.65 120 1.65  86 1.67 143 1.68 263 3.13
 206  0.410  0.765  0.574-  84 1.62 123 1.63  98 1.65 197 1.68 247 3.04
 207  0.842  0.441  0.468-  69 1.64 104 1.65 173 1.65 128 1.69
 208  0.017  0.990  0.394-  57 1.65 166 1.65  72 1.65 117 1.65 261 3.11 216 3.13
 209  0.015  0.284  0.391-  74 1.64  73 1.65 151 1.66 126 1.68 236 3.11 216 3.11
 210  0.010  0.115  0.572-  60 1.63 147 1.64  70 1.69 201 1.69 250 2.39 242 3.04 240 3.07
 211  0.611  0.660  0.612- 160 1.64 194 1.65  97 1.66 200 1.66 265 2.86 246 3.12
 212  0.214  0.476  0.510- 172 1.61 171 1.63 168 1.66 131 1.66 223 3.10 256 3.14
 213  0.915  0.756  0.496-  96 1.65 174 1.65  80 1.65  85 1.66 226 2.99 234 3.03
 214  0.521  0.110  0.426- 107 1.64  58 1.65 135 1.66 115 1.67 245 3.08 228 3.12
 215  0.419  0.167  0.588-  78 1.64 195 1.65  95 1.68 155 1.68 268 3.12 255 3.14
 216  0.083  0.139  0.407-  57 1.64 138 1.65  83 1.65 151 1.66 209 3.11 208 3.13 262 3.14
 217  0.702  0.045  0.487-  90 1.64 159 1.65  56 1.65 175 1.66 228 3.09 218 3.10
 218  0.665  0.898  0.437-  89 1.53 159 1.66 119 1.66 150 1.67 264 2.83 251 3.06 217 3.10
 219  0.650  0.504  0.430-  99 1.65 157 1.65  87 1.67  93 1.68 227 3.08
 220  0.198  0.912  0.464- 130 1.50 176 1.64 153 1.66 109 1.67 238 3.01 235 3.05 261 3.07
 221  0.214  0.366  0.603-  77 1.63 172 1.64 101 1.64 177 1.65
 222  0.675  0.816  0.594- 178 1.62 110 1.64  92 1.67 200 1.70 249 2.89
 223  0.217  0.641  0.538- 163 1.63 170 1.63 196 1.65 131 1.65 238 3.09 212 3.10 267 3.12
 224  0.369  0.735  0.459-  98 1.65  67 1.65  51 1.66 179 1.68
 225  0.798  0.890  0.596- 134 1.66  92 1.66 103 1.66 199 1.68 234 2.86 226 2.98 252 3.14
 226  0.880  0.912  0.512-  66 1.60  85 1.62 103 1.65 111 1.65 225 2.98 213 2.99 250 3.05 241 3.13

 227  0.577  0.575  0.512-  93 1.59 160 1.62  94 1.63 127 1.66 237 3.00 219 3.08
 228  0.590  0.115  0.525-  56 1.59 115 1.61 152 1.62 142 1.65 255 2.84 217 3.09 239 3.11 214 3.12

 229  0.858  0.152  0.495- 180 1.65  81 1.65 114 1.65  59 1.69 241 3.07 232 3.15
 230  0.836  0.605  0.645-  53 1.64  65 1.64 198 1.66 148 1.66 265 2.92 260 2.98 234 2.99
 231  0.134  0.360  0.357- 181 1.65  74 1.65  64 1.67 182 1.69 256 3.11
 232  0.791  0.280  0.442- 161 1.63 104 1.65 108 1.67  59 1.67 229 3.15
 233  0.399  0.177  0.396-  58 1.65 116 1.65 183 1.66  68 1.67 253 3.07
 234  0.856  0.751  0.597- 158 1.63  65 1.64  80 1.64 199 1.66 225 2.86 230 2.99 213 3.03
 235  0.284  0.933  0.548- 109 1.58 169 1.64  54 1.68 202 1.70 268 2.37 220 3.05
 236  0.023  0.330  0.502- 154 1.64 162 1.64  76 1.65 126 1.66 240 3.10 209 3.11 242 3.13
 237  0.575  0.695  0.436-  62 1.51  94 1.52 140 1.65  82 1.68 227 3.00 264 3.06 251 3.10
 238  0.230  0.753  0.452- 130 1.63 170 1.66  75 1.66  67 1.67 248 2.97 220 3.01 223 3.09
 239  0.594  0.284  0.548- 164 1.63 105 1.63 136 1.63 152 1.64 228 3.11
 240  0.975  0.272  0.602-  91 1.63  60 1.65 184 1.66 162 1.67 210 3.07 236 3.10
 241  0.889  0.025  0.424-  81 1.64 166 1.64  66 1.65 137 1.66 229 3.07 226 3.13
 242  0.105  0.196  0.518- 139 1.61 138 1.62 147 1.64 154 1.65 210 3.04 236 3.13
 243  0.048  0.733  0.483- 156 1.63  96 1.65  88 1.65 120 1.66 261 3.05 267 3.15
 244  0.232  0.205  0.561- 129 1.62  77 1.63 139 1.63 167 1.65 266 3.02
 245  0.561  0.258  0.381- 112 1.45 107 1.59 149 1.66 185 1.66 253 2.87 214 3.08
 246  0.481  0.632  0.627- 123 1.62 194 1.65 118 1.68  79 1.71 270 2.80 211 3.12
 247  0.283  0.770  0.597- 186 1.63  84 1.64 196 1.65 169 1.65 206 3.04
 248  0.209  0.643  0.372- 187 1.65 144 1.67  75 1.67 143 1.68 238 2.97
 249  0.740  0.712  0.536- 158 1.61 124 1.63 100 1.63 110 1.64 222 2.89 251 2.90 265 3.07
 250  0.987  0.990  0.550-  55 1.63 111 1.64  70 1.68 201 1.69 210 2.39 226 3.05
 251  0.703  0.737  0.434-  89 1.65 122 1.65 140 1.66 124 1.69 249 2.90 218 3.06 237 3.10
 252  0.788  0.060  0.577-  90 1.64 125 1.64 114 1.66 134 1.68 225 3.14
 253  0.456  0.328  0.409- 141 1.66 112 1.66  68 1.67 145 1.69 245 2.87 233 3.07
 254  0.451  0.935  0.594-  63 1.65 197 1.66 203 1.69 113 1.69 255 2.36 268 2.75
 255  0.510  0.040  0.586- 142 1.62 195 1.65 113 1.70 203 1.70 254 2.36 228 2.84 215 3.14
 256  0.244  0.370  0.421-  61 1.65  64 1.66 188 1.66 168 1.71 231 3.11 212 3.14
 257  0.659  0.330  0.450- 161 1.64 149 1.65 157 1.65 164 1.65
 258  0.461  0.316  0.528- 105 1.61 145 1.64  95 1.67 121 1.71
 259  0.337  0.590  0.399- 144 1.65 189 1.67  52 1.67  51 1.68
 260  0.804  0.479  0.579-  69 1.63 165 1.65 148 1.66 106 1.66 265 2.90 230 2.98
 261  0.069  0.899  0.481-  88 1.50  72 1.64 153 1.65  55 1.66 243 3.05 220 3.07 208 3.11
 262  0.212  0.144  0.374-  83 1.65 146 1.65 191 1.66 190 1.69 266 3.12 216 3.14
 263  0.078  0.494  0.495- 102 1.63  76 1.64 171 1.65  86 1.66 267 3.10 205 3.13
 264  0.558  0.852  0.475- 150 1.29 192 1.60  62 1.66 193 1.67 218 2.83 237 3.06
 265  0.719  0.586  0.610-  97 1.64 198 1.64 100 1.65 106 1.65 211 2.86 260 2.90 230 2.92 249 3.07

 266  0.287  0.210  0.459- 167 1.63 116 1.63  61 1.66 146 1.67 244 3.02 262 3.12
 267  0.088  0.626  0.568- 156 1.63 132 1.63 102 1.64 163 1.65 263 3.10 223 3.12 243 3.15
 268  0.354  0.018  0.577- 155 1.63  63 1.66 202 1.69  54 1.69 235 2.37 254 2.75 215 3.12
 269  0.490  0.475  0.572- 127 1.63 121 1.66  71 1.68  79 1.69 270 2.92
 270  0.484  0.499  0.680- 204 1.71  71 1.92 118 1.93  79 2.57 246 2.80 269 2.92

  LATTYP: Found a simple orthorhombic cell.
 ALAT       =    18.1212369514
 B/A-ratio  =     1.2919258579
 C/A-ratio  =     1.4835282260
  
  Lattice vectors:
  
 A1 = (   0.0000000000, -18.1212369514,   0.0000000000)
 A2 = ( -23.4112945954,   0.0000000000,   0.0000000000)
 A3 = (   0.0000000000,   0.0000000000, -26.8833665073)


Analysis of symmetry for initial positions (statically):
=====================================================================
 Subroutine PRICEL returns:
 Original cell was already a primitive cell.
 

 Routine SETGRP: Setting up the symmetry group for a 
 simple orthorhombic supercell.


 Subroutine GETGRP returns: Found  1 space group operations
 (whereof  1 operations were pure point group operations)
 out of a pool of  8 trial point group operations.


The static configuration has the point symmetry C_1 .


Analysis of symmetry for dynamics (positions and initial velocities):
=====================================================================
 Subroutine PRICEL returns:
 Original cell was already a primitive cell.
 

 Routine SETGRP: Setting up the symmetry group for a 
 simple orthorhombic supercell.


 Subroutine GETGRP returns: Found  1 space group operations
 (whereof  1 operations were pure point group operations)
 out of a pool of  8 trial point group operations.


The dynamic configuration has the point symmetry C_1 .


Analysis of constrained symmetry for selective dynamics:
=====================================================================
 Subroutine PRICEL returns:
 Original cell was already a primitive cell.
 

 Routine SETGRP: Setting up the symmetry group for a 
 simple orthorhombic supercell.


 Subroutine GETGRP returns: Found  1 space group operations
 (whereof  1 operations were pure point group operations)
 out of a pool of  8 trial point group operations.


The constrained configuration has the point symmetry C_1 .


 Subroutine INISYM returns: Found  1 space group operations
 (whereof  1 operations are pure point group operations),
 and found     1 'primitive' translations



 KPOINTS: KPOINTS created by Atomic Simulation Env

Automatic generation of k-mesh.
Space group operators:
 irot       det(A)        alpha          n_x          n_y          n_z        tau_x        tau_y        tau_z
    1     1.000000     0.000000     1.000000     0.000000     0.000000     0.000000     0.000000     0.000000
 
 Subroutine IBZKPT returns following result:
 ===========================================
 
 Found      5 irreducible k-points:
 
 Following reciprocal coordinates:
            Coordinates               Weight
  0.000000  0.000000  0.000000      1.000000
  0.333333  0.000000  0.000000      2.000000
  0.000000  0.333333  0.000000      2.000000
  0.333333  0.333333  0.000000      2.000000
 -0.333333  0.333333  0.000000      2.000000
 
 Following cartesian coordinates:
            Coordinates               Weight
  0.000000  0.000000  0.000000      1.000000
  0.014238  0.000000  0.000000      2.000000
  0.000000  0.018395  0.000000      2.000000
  0.014238  0.018395  0.000000      2.000000
 -0.014238  0.018395  0.000000      2.000000
 


--------------------------------------------------------------------------------------------------------




 Dimension of arrays:
   k-points           NKPTS =      5   k-points in BZ     NKDIM =      5   number of bands    NBANDS=    760
   number of dos      NEDOS =    301   number of ions     NIONS =    270
   non local maximal  LDIM  =      6   non local SUM 2l+1 LMDIM =     18
   total plane-waves  NPLWV = ******
   max r-space proj   IRMAX =   2748   max aug-charges    IRDMAX=   9808
   dimension x,y,z NGX =   128 NGY =  100 NGZ =  150
   dimension x,y,z NGXF=   256 NGYF=  200 NGZF=  300
   support grid    NGXF=   256 NGYF=  200 NGZF=  300
   ions per type =               2  48 154  65   1
   NGX,Y,Z   is equivalent  to a cutoff of   9.09,  9.17,  9.28 a.u.
   NGXF,Y,Z  is equivalent  to a cutoff of  18.18, 18.35, 18.55 a.u.

 SYSTEM =  unknown system                          
 POSCAR =   C  H  O Si  W                          

 Startparameter for this run:
   NWRITE =      2    write-flag & timer
   PREC   = normal    normal or accurate (medium, high low for compatibility)
   ISTART =      0    job   : 0-new  1-cont  2-samecut
   ICHARG =      2    charge: 1-file 2-atom 10-const
   ISPIN  =      1    spin polarized calculation?
   LNONCOLLINEAR =      F non collinear calculations
   LSORBIT =      F    spin-orbit coupling
   INIWAV =      1    electr: 0-lowe 1-rand  2-diag
   LASPH  =      T    aspherical Exc in radial PAW
   METAGGA=      F    non-selfconsistent MetaGGA calc.

 Electronic Relaxation 1
   ENCUT  =  500.0 eV  36.75 Ry    6.06 a.u.  42.68 33.04 49.01*2*pi/ulx,y,z
   ENINI  =  500.0     initial cutoff
   ENAUG  =  644.9 eV  augmentation charge cutoff
   NELM   =     60;   NELMIN=  2; NELMDL=  0     # of ELM steps 
   EDIFF  = 0.1E-03   stopping-criterion for ELM
   LREAL  =      T    real-space projection
   NLSPLINE    = F    spline interpolate recip. space projectors
   LCOMPAT=      F    compatible to vasp.4.4
   GGA_COMPAT  = T    GGA compatible to vasp.4.4-vasp.4.6
   LMAXPAW     = -100 max onsite density
   LMAXMIX     =    2 max onsite mixed and CHGCAR
   VOSKOWN=      0    Vosko Wilk Nusair interpolation
   ROPT   =   -0.00050  -0.00050  -0.00050  -0.00050
   ROPT   =   -0.00050
 Ionic relaxation
   EDIFFG = -.5E-01   stopping-criterion for IOM
   NSW    =    150    number of steps for IOM
   NBLOCK =      1;   KBLOCK =    150    inner block; outer block 
   IBRION =      1    ionic relax: 0-MD 1-quasi-New 2-CG
   NFREE  =      0    steps in history (QN), initial steepest desc. (CG)
   ISIF   =      0    stress and relaxation
   IWAVPR =     11    prediction:  0-non 1-charg 2-wave 3-comb
   ISYM   =      2    0-nonsym 1-usesym 2-fastsym
   LCORR  =      T    Harris-Foulkes like correction to forces

   POTIM  = 0.5000    time-step for ionic-motion
   TEIN   =    0.0    initial temperature
   TEBEG  =    0.0;   TEEND  =   0.0 temperature during run
   SMASS  =  -3.00    Nose mass-parameter (am)
   estimated Nose-frequenzy (Omega)   =  0.10E-29 period in steps =****** mass=  -0.125E-25a.u.
   SCALEE = 1.0000    scale energy and forces
   NPACO  =    256;   APACO  = 16.0  distance and # of slots for P.C.
   PSTRESS=    0.0 pullay stress

  Mass of Ions in am
   POMASS =  12.01  1.00 16.00 28.09183.85
  Ionic Valenz
   ZVAL   =   4.00  1.00  6.00  4.00  6.00
  Atomic Wigner-Seitz radii
   RWIGS  =  -1.00 -1.00 -1.00 -1.00 -1.00
  virtual crystal weights 
   VCA    =   1.00  1.00  1.00  1.00  1.00
   NELECT =    1246.0000    total number of electrons
   NUPDOWN=      -1.0000    fix difference up-down

 DOS related values:
   EMIN   =  10.00;   EMAX   =-10.00  energy-range for DOS
   EFERMI =   0.00
   ISMEAR =     0;   SIGMA  =   0.20  broadening in eV -4-tet -1-fermi 0-gaus

 Electronic relaxation 2 (details)
   IALGO  =     68    algorithm
   LDIAG  =      T    sub-space diagonalisation (order eigenvalues)
   LSUBROT=      F    optimize rotation matrix (better conditioning)
   TURBO    =      0    0=normal 1=particle mesh
   IRESTART =      0    0=no restart 2=restart with 2 vectors
   NREBOOT  =      0    no. of reboots
   NMIN     =      0    reboot dimension
   EREF     =   0.00    reference energy to select bands
   IMIX   =      4    mixing-type and parameters
     AMIX     =   0.40;   BMIX     =  1.00
     AMIX_MAG =   1.60;   BMIX_MAG =  1.00
     AMIN     =   0.10
     WC   =   100.;   INIMIX=   1;  MIXPRE=   1;  MAXMIX= -45

 Intra band minimization:
   WEIMIN = 0.0010     energy-eigenvalue tresh-hold
   EBREAK =  0.33E-07  absolut break condition
   DEPER  =   0.30     relativ break condition  

   TIME   =   0.40     timestep for ELM

  volume/ion in A,a.u.               =      42.24       285.06
  Fermi-wavevector in a.u.,A,eV,Ry     =   0.782616  1.478929  8.333395  0.612487
  Thomas-Fermi vector in A             =   1.886376

 Write flags
   LWAVE        =      F    write WAVECAR
   LDOWNSAMPLE  =      F    k-point downsampling of WAVECAR
   LCHARG       =      F    write CHGCAR
   LVTOT        =      F    write LOCPOT, total local potential
   LVHAR        =      F    write LOCPOT, Hartree potential only
   LELF         =      F    write electronic localiz. function (ELF)
   LORBIT       =      0    0 simple, 1 ext, 2 COOP (PROOUT), +10 PAW based schemes


 Dipole corrections
   LMONO  =      F    monopole corrections only (constant potential shift)
   LDIPOL =      T    correct potential (dipole corrections)
   IDIPOL =      3    1-x, 2-y, 3-z, 4-all directions 
   EPSILON=  1.0000000 bulk dielectric constant

 Exchange correlation treatment:
   GGA     =    RP    GGA type
   LEXCH   =     9    internal setting for exchange type
   VOSKOWN=      0    Vosko Wilk Nusair interpolation
   LHFCALC =     F    Hartree Fock is set to
   LHFONE  =     F    Hartree Fock one center treatment
   AEXX    =    0.0000 exact exchange contribution

 Linear response parameters
   LEPSILON=     F    determine dielectric tensor
   LRPA    =     F    only Hartree local field effects (RPA)
   LNABLA  =     F    use nabla operator in PAW spheres
   LVEL    =     F    velocity operator in full k-point grid
   LINTERFAST=   F  fast interpolation
   KINTER  =     0    interpolate to denser k-point grid
   CSHIFT  =0.1000    complex shift for real part using Kramers Kronig
   OMEGAMAX=  -1.0    maximum frequency
   DEG_THRESHOLD= 0.2000000E-02 threshold for treating states as degnerate
   RTIME   =   -0.100 relaxation time in fs
  (WPLASMAI=    0.000 imaginary part of plasma frequency in eV, 0.658/RTIME)
   DFIELD  = 0.0000000 0.0000000 0.0000000 field for delta impulse in time

 Orbital magnetization related:
   ORBITALMAG=     F  switch on orbital magnetization
   LCHIMAG   =     F  perturbation theory with respect to B field
   DQ        =  0.001000  dq finite difference perturbation B field
   LLRAUG    =     F  two centre corrections for induced B field



--------------------------------------------------------------------------------------------------------


 quasi-Newton-method for relaxation of ions
   using selective dynamics as specified on POSCAR
 charge density and potential will be updated during run
 non-spin polarized calculation
 RMM-DIIS sequential band-by-band and
  variant of blocked Davidson during initial phase
 perform sub-space diagonalisation
    before iterative eigenvector-optimisation
 modified Broyden-mixing scheme, WC =      100.0
 initial mixing is a Kerker type mixing with AMIX =  0.4000 and BMIX =      1.0000
 Hartree-type preconditioning will be used
 using additional bands          137
 real space projection scheme for non local part
 use partial core corrections
 calculate Harris-corrections to forces   (improved forces if not selfconsistent)
 use gradient corrections 
 use of overlap-Matrix (Vanderbilt PP)
 Gauss-broadening in eV      SIGMA  =   0.20


--------------------------------------------------------------------------------------------------------


  energy-cutoff  :      500.00
  volume of cell :    11405.04
      direct lattice vectors                 reciprocal lattice vectors
    23.411294595  0.000000000  0.000000000     0.042714426  0.000000000  0.000000000
     0.000000000 18.121236951  0.000000000     0.000000000  0.055183871  0.000000000
     0.000000000  0.000000000 26.883366507     0.000000000  0.000000000  0.037197722

  length of vectors
    23.411294595 18.121236951 26.883366507     0.042714426  0.055183871  0.037197722



 k-points in units of 2pi/SCALE and weight: KPOINTS created by Atomic Simulation Env
   0.00000000  0.00000000  0.00000000       0.111
   0.01423814  0.00000000  0.00000000       0.222
   0.00000000  0.01839462  0.00000000       0.222
   0.01423814  0.01839462  0.00000000       0.222
  -0.01423814  0.01839462  0.00000000       0.222

 k-points in reciprocal lattice and weights: KPOINTS created by Atomic Simulation Env
   0.00000000  0.00000000  0.00000000       0.111
   0.33333333  0.00000000  0.00000000       0.222
   0.00000000  0.33333333  0.00000000       0.222
   0.33333333  0.33333333  0.00000000       0.222
  -0.33333333  0.33333333  0.00000000       0.222

 position of ions in fractional coordinates (direct lattice) 
   0.54570456  0.58371737  0.81000404
   0.49724096  0.62269708  0.80685162
   0.76128612  0.10520577  0.65109136
   0.92642768  0.27866896  0.35633493
   0.79333970  0.20727890  0.37345652
   0.97453911  0.94360860  0.32530279
   0.62573266  0.96347285  0.37523120
   0.82053840  0.99500666  0.36899263
   0.74999307  0.14117876  0.45803819
   0.91526283  0.24939289  0.51015797
   0.58349286  0.30426355  0.30592717
   0.89287848  0.33659058  0.61714482
   0.58469607  0.35510135  0.61665710
   0.59408619  0.87186441  0.57721991
   0.03446922  0.33669565  0.65210463
   0.93527051  0.41951423  0.45410146
   0.74613838  0.53031199  0.42248819
   0.79921809  0.38613807  0.63529611
   0.59110202  0.56868283  0.37803474
   0.71843379  0.64593279  0.38346059
   0.84115291  0.54242660  0.41959617
   0.00476455  0.60379815  0.35777830
   0.82835870  0.71235667  0.46794226
   0.87321092  0.59536478  0.72210898
   0.51999031  0.98556476  0.42170307
   0.22309457  0.98015484  0.39320502
   0.21637369  0.23785146  0.31923033
   0.15750105  0.32980623  0.27898292
   0.34154688  0.15558571  0.33077276
   0.22271586  0.04575893  0.32273843
   0.51177481  0.82521787  0.54689652
   0.37604121  0.23799555  0.64633473
   0.24407538  0.09178149  0.59702848
   0.31538097  0.48713646  0.44243467
   0.40895618  0.43873486  0.40569060
   0.39849950  0.79311361  0.38878680
   0.24420236  0.65543008  0.29432688
   0.31174138  0.41847571  0.36925764
   0.40547429  0.58427965  0.33881989
   0.13935762  0.48797365  0.35192946
   0.59326935  0.69798713  0.35239799
   0.46900683  0.86142747  0.44382838
   0.12163643  0.32261233  0.61053385
   0.06984864  0.66749167  0.64478897
   0.24010258  0.38676807  0.68272712
   0.24853419  0.81632112  0.66863053
   0.58669973  0.61022708  0.81773886
   0.54599584  0.52407854  0.80438129
   0.49652104  0.68254412  0.81192919
   0.45639012  0.59606724  0.79878829
   0.36894173  0.64835510  0.43900002
   0.34681565  0.50403387  0.42038813
   0.86160566  0.56447107  0.69448699
   0.34959697  0.95763560  0.52863409
   0.03354015  0.93189024  0.52877722
   0.63635548  0.07886855  0.48937667
   0.06864615  0.05226542  0.39511073
   0.45189954  0.12956232  0.42059728
   0.80588415  0.21365018  0.48316661
   0.97341418  0.18129640  0.59816363
   0.27476529  0.29917287  0.44851223
   0.55635417  0.77509129  0.44175101
   0.39256878  0.97081677  0.61787388
   0.17751724  0.34996845  0.40527312
   0.86667395  0.68611674  0.63790283
   0.86569601  0.96717693  0.46703846
   0.30104714  0.76093683  0.45792526
   0.42161095  0.26125222  0.37959630
   0.81082916  0.46550361  0.51990539
   0.98436125  0.07211044  0.52076317
   0.51752968  0.44382978  0.62618154
   0.03453641  0.91994776  0.42940526
   0.96303654  0.30319531  0.35125762
   0.06962669  0.33610577  0.37637178
   0.20829566  0.72864429  0.39536010
   0.03890126  0.41910192  0.49910875
   0.24003180  0.28500119  0.58825639
   0.39726364  0.19225970  0.64352815
   0.46226479  0.55516193  0.59386882
   0.90984241  0.74932921  0.55746645
   0.86912727  0.10804334  0.44227833
   0.57257679  0.66733185  0.37613173
   0.14242656  0.15912550  0.37597224
   0.35182245  0.76433333  0.60697291
   0.91099605  0.84504757  0.48317962
   0.06133801  0.53687171  0.44225348
   0.70833903  0.55516655  0.41995768
   0.07548726  0.81680680  0.48299416
   0.70046477  0.82755572  0.43263529
   0.73030473  0.04927830  0.54293363
   0.91864797  0.30044368  0.63196188
   0.73564240  0.85455361  0.61277236
   0.62512195  0.52739400  0.48637871
   0.55657330  0.62970304  0.46724942
   0.42636241  0.24499835  0.55452846
   0.97829009  0.72824363  0.47679564
   0.65467231  0.59585181  0.63378379
   0.39719253  0.74604935  0.51500796
   0.60269007  0.51766545  0.38567099
   0.71875266  0.63310335  0.55724400
   0.14662886  0.36371376  0.61873057
   0.06671790  0.54854421  0.54202482
   0.81892004  0.88531121  0.53655806
   0.82821553  0.35538514  0.45190334
   0.52789822  0.29759818  0.53188855
   0.73747621  0.50094617  0.59507191
   0.55743394  0.17243111  0.39490854
   0.80596408  0.25641257  0.38329286
   0.23744622  0.95325075  0.50791956
   0.69335502  0.77856034  0.54059042
   0.92395766  0.94984699  0.55289300
   0.52573722  0.31778112  0.39855594
   0.46992471  0.98880730  0.54534699
   0.83781790  0.09513299  0.53981591
   0.53790325  0.11641749  0.48623709
   0.35019344  0.18660873  0.43963639
   0.01176032  0.96241390  0.33524376
   0.45864865  0.60034922  0.68180291
   0.65496522  0.92539750  0.37922825
   0.07629334  0.68602626  0.43588102
   0.45274094  0.40331781  0.55146036
   0.71921944  0.70042085  0.37958300
   0.45095617  0.70115787  0.59796249
   0.75255106  0.70932458  0.47629548
   0.77873867  0.12224825  0.62047644
   0.99327462  0.30801347  0.44840298
   0.53200090  0.50885885  0.52984002
   0.81677759  0.49906173  0.42344221
   0.23537748  0.14338228  0.60433427
   0.20353331  0.83070132  0.47053363
   0.24003966  0.55841583  0.52282769
   0.06119398  0.62568913  0.62363020
   0.04607407  0.60234669  0.35417863
   0.80118834  0.97984753  0.60574494
   0.53799091  0.02769749  0.40450275
   0.60593883  0.31229066  0.60508285
   0.86154611  0.00408085  0.36920633
   0.09491131  0.14902284  0.46708233
   0.17162807  0.20507760  0.53051253
   0.64098865  0.70443872  0.45481558
   0.43678778  0.40976848  0.38641325
   0.57505606  0.05803039  0.57102565
   0.15143775  0.59340802  0.38895836
   0.26773979  0.60233753  0.39230630
   0.44025846  0.32219818  0.47032443
   0.23800967  0.15851113  0.42990119
   0.07318773  0.14974583  0.56239846
   0.84514639  0.54845678  0.59727714
   0.62117943  0.27993988  0.41090545
   0.60266699  0.89152667  0.46722346
   0.03138539  0.19528983  0.38899188
   0.60830730  0.19522225  0.54718437
   0.13279973  0.93835464  0.47948708
   0.08010737  0.28028715  0.51181616
   0.37322039  0.10320734  0.56672396
   0.06707742  0.69704759  0.53559016
   0.66648838  0.41538488  0.43001156
   0.79941318  0.73042930  0.56430954
   0.70383856  0.95720843  0.47018456
   0.59564884  0.63288658  0.55500232
   0.72284030  0.29368465  0.45166811
   0.97740519  0.31458478  0.54725141
   0.15861932  0.63002757  0.57066793
   0.63333384  0.32678308  0.50780070
   0.82258549  0.40124996  0.60726837
   0.95857820  0.02724304  0.41695300
   0.28236880  0.19511363  0.51861724
   0.24925755  0.44303289  0.46105570
   0.27531970  0.84781245  0.56621720
   0.20366815  0.68557317  0.48688872
   0.14712345  0.47606988  0.49254493
   0.22519491  0.42189426  0.55658633
   0.91141698  0.45274460  0.47371881
   0.86978818  0.70456011  0.46415352
   0.73812021  0.09283462  0.44522965
   0.22218344  0.92978119  0.40794682
   0.25145753  0.40154189  0.64953937
   0.63101718  0.88485749  0.59255682
   0.41022327  0.78906239  0.42343739
   0.91777135  0.19603829  0.50824515
   0.13254706  0.44353611  0.33227266
   0.15514768  0.30352326  0.31056042
   0.37300515  0.13090704  0.34795342
   0.03491815  0.29129049  0.63295882
   0.57268926  0.25686819  0.32009968
   0.24607784  0.77186918  0.64864896
   0.20737430  0.64840505  0.31036906
   0.27537441  0.39219130  0.36737583
   0.36535081  0.59758663  0.34222079
   0.22638085  0.05618082  0.35811888
   0.24120334  0.19607823  0.32934297
   0.50127293  0.89230162  0.45484168
   0.55064228  0.82735890  0.53428967
   0.54724489  0.65773113  0.63725398
   0.47884481  0.12038735  0.59572690
   0.26343881  0.69332067  0.56838950
   0.44397744  0.84547657  0.58111636
   0.76612278  0.61856859  0.64926756
   0.84538021  0.83305604  0.62282560
   0.64283517  0.74137532  0.62052014
   0.00800571  0.03337689  0.60290100
   0.28568163  0.00039390  0.59254617
   0.50419660  0.97030650  0.62807403
   0.49346764  0.45865011  0.73635646
   0.08322528  0.60642030  0.40641308
   0.40980647  0.76462613  0.57413492
   0.84176382  0.44145312  0.46783897
   0.01708949  0.99048204  0.39361135
   0.01470021  0.28419027  0.39108141
   0.00958178  0.11471507  0.57214542
   0.61108054  0.66035539  0.61171339
   0.21398930  0.47553725  0.50980904
   0.91506213  0.75556094  0.49625454
   0.52057854  0.11045563  0.42598659
   0.41900984  0.16747011  0.58814393
   0.08345253  0.13917208  0.40698087
   0.70189793  0.04484625  0.48732303
   0.66505935  0.89803746  0.43747644
   0.65009874  0.50402706  0.43015089
   0.19846065  0.91248223  0.46399069
   0.21445526  0.36586286  0.60341017
   0.67466474  0.81578299  0.59394171
   0.21690188  0.64133962  0.53844896
   0.36878912  0.73512773  0.45920930
   0.79802802  0.88980065  0.59561235
   0.87993556  0.91239832  0.51194200
   0.57652401  0.57495339  0.51202380
   0.58999776  0.11539666  0.52515861
   0.85812234  0.15211323  0.49517595
   0.83598501  0.60519997  0.64498459
   0.13373852  0.36031890  0.35687228
   0.79065529  0.27993925  0.44187265
   0.39917610  0.17749484  0.39600320
   0.85617493  0.75124535  0.59660021
   0.28413623  0.93345029  0.54829425
   0.02307473  0.33044751  0.50224551
   0.57455938  0.69549008  0.43556436
   0.23024095  0.75260050  0.45196954
   0.59413694  0.28359164  0.54835331
   0.97525397  0.27198822  0.60245343
   0.88890636  0.02540900  0.42420019
   0.10484243  0.19550025  0.51770273
   0.04814566  0.73303709  0.48263019
   0.23204051  0.20538129  0.56084666
   0.56140781  0.25778527  0.38122611
   0.48078823  0.63234144  0.62656212
   0.28271839  0.76970302  0.59691531
   0.20850083  0.64339984  0.37179454
   0.74045866  0.71221321  0.53582060
   0.98675691  0.99032412  0.55031690
   0.70310456  0.73681815  0.43426040
   0.78792991  0.06026190  0.57678116
   0.45631390  0.32845159  0.40928789
   0.45077653  0.93464543  0.59357160
   0.50953783  0.03965439  0.58566670
   0.24424715  0.37040632  0.42094710
   0.65852534  0.33000211  0.45034791
   0.46064386  0.31622502  0.52840229
   0.33729937  0.58994254  0.39908301
   0.80400758  0.47893034  0.57939060
   0.06920979  0.89885916  0.48050551
   0.21190758  0.14445432  0.37359659
   0.07823286  0.49398500  0.49468762
   0.55757019  0.85234010  0.47473025
   0.71876029  0.58622063  0.60971600
   0.28664212  0.21010174  0.45911077
   0.08839957  0.62564391  0.56765873
   0.35435383  0.01771464  0.57668492
   0.48986503  0.47490176  0.57225795
   0.48356605  0.49912889  0.67963092

 position of ions in cartesian coordinates  (Angst):
  12.77565032 10.57768079 21.77563549
  11.64105450 11.28404135 21.69088772
  17.82269356  1.90645863 17.50352772
  21.68887124  5.04982631  9.57948250
  18.57310935  3.75615001 10.03976840
  22.81522226 17.09935504  8.74523415
  14.64921175 17.45931981 10.08747787
  19.20986618 18.03075152  9.91976410
  17.55830880  2.55833369 12.31360861
  21.42748766  4.51930768 13.71476376
  13.66032332  5.51363182  8.22435231
  20.90344120  6.09943773 16.59093045
  13.68849187  6.43487575 16.57781873
  13.90832674 15.79926152 15.51761440
   0.80696898  6.10134172 17.53076770
  21.89589338  7.60211669 12.20777585
  17.46806539  9.60990927 11.35790489
  18.71073013  6.99729948 17.07889804
  13.83846347 10.30523625 10.16284657
  16.81946503 11.70510107 10.30871170
  19.69247867  9.82944088 11.28015755
   0.11154425 10.94156933  9.61828518
  19.39294954 12.90878407 12.57986315
  20.44299802 10.78874634 19.41272045
  12.17364643 17.85965258 11.33679820
   5.22293275 17.76161802 10.57067472
   5.06558822  4.31016263  8.58198589
   3.68730349  5.97649684  7.50000000
   7.99605455  2.81940544  8.89228530
   5.21406665  0.82920834  8.67629559
  11.98131077 14.95396859 14.70241971
   8.80361145  4.31277376 17.37565354
   5.71412054  1.66319405 16.05013539
   7.38347683  8.82751530 11.89413327
   9.57419369  7.95041833 10.90632902
   9.32938927 14.37219961 10.45189795
   5.71709332 11.87720376  7.91249741
   7.29826932  7.58329756  9.92688859
   9.49267817 10.58787005  9.10861924
   3.26254231  8.84268608  9.46104865
  13.88920341 12.64839014  9.47364424
  10.98005707 15.61013129 11.93160111
   2.84766629  5.84613454 16.41320527
   1.63524710 12.09577479 17.33409833
   5.62111226  7.00871576 18.35400349
   5.81850722 14.79274842 17.97503954
  13.73540031 11.05806959 21.98357338
  12.78246942  9.49695148 21.62447695
  11.62420042 12.36854374 21.82739005
  10.68468344 10.80147572 21.47411841
   8.63740362 11.74899635 11.80179838
   8.11940335  9.13371715 11.30144811
  20.17130404 10.22891404 18.67014833
   8.18451759 17.35354162 14.21146389
   0.78521829 16.88700378 14.21531177
  14.89790566  1.42919560 13.15609244
   1.60709516  0.94711409 10.62190669
  10.57955332  2.34782959 11.30707087
  18.86679123  3.87160553 12.98914499
  22.78888620  3.28531509 16.08065213
   6.43261122  5.42138249 12.05751853
  13.02497128 14.04561295 11.87575437
   9.19054325 17.59240066 16.61052985
   4.15590840  6.34186120 10.89510594
  20.28995922 12.43328394 17.14897558
  20.26706433 17.52644236 12.55556607
   7.04790320 13.78911669 12.31057251
   9.87045805  4.73421333 10.20482654
  18.98256043  8.43550117 13.97680710
  23.04517131  1.30673044 13.99986719
  12.11603973  8.04274470 16.83386794
   0.80854198 16.67059137 11.54385891
  22.54593219  5.49427402  9.44298747
   1.63005096  6.09065222 10.11814055
   4.87647100 13.20393591 10.62861051
   0.91072893  7.59464512 13.41772355
   5.61945509  5.16457413 15.81431209
   9.30045617  3.48398349 17.30020316
  10.82221722 10.06022085 15.96519308
  21.30058873 13.57877213 14.98657491
  20.34739459  1.95787901 11.88993046
  13.40476402 12.09287863 10.11168720
   3.33439013  2.88355087 10.10739962
   8.23661906 13.85066542 16.31747517
  21.32759690 15.31330728 12.98949491
   1.43600223  9.72877939 11.88926245
  16.58313365 10.06030463 11.28987623
   1.76725442 14.80154966 12.98450890
  16.39878711 14.99633320 11.63069310
  17.09737915  0.89298374 14.59588386
  21.50673828  5.44441104 16.98926292
  17.22234088 15.48556843 16.47338385
  14.63491423  9.55703168 13.07549710
  13.03010146 11.41099800 12.56123752
   9.98169606  4.43967311 14.90759185
  22.90303759 13.19667544 12.81787194
  15.32672627 10.79757180 17.03824178
   9.29879132 13.51933700 13.84514764
  14.10975474  9.38073831 10.36813464
  16.82693035 11.47261577 14.98059458
   3.43277137  6.59094328 16.63356078
   1.56195241  9.94029962 14.57145198
  19.17197824 16.04293427 14.42448696
  19.38959778  6.44001838 12.14868300
  12.35878076  5.39284718 14.29895487
  17.26527277  9.07776416 15.99753626
  13.05025010  3.12466491 10.61647095
  18.86866258  4.64651295 10.30420244
   5.55892333 17.27408272 13.65458756
  16.23233853 14.10847648 14.53289038
  21.63104501 17.21240232 14.86362527
  12.30818899  5.75858697 10.71452528
  11.00154587 17.91841133 14.66076301
  19.61440162  1.72392739 14.51206892
  12.59301152  2.10962891 13.07168996
   8.19848185  3.38158106 11.81890631
   0.27532438 17.44013033  9.01248080
  10.73755863 10.87907052 18.32915739
  15.33358375 16.76934745 10.19493214
   1.78612593 12.43164437 11.71794928
  10.59925143  7.30861760 14.82511091
  16.83785811 12.69249221 10.20446890
  10.55746770 12.70584785 16.07524477
  17.61819454 12.85383871 12.80442605
  18.23128050  2.21528953 16.68049548
  23.25384464  5.58158514 12.05458163
  12.45482985  9.22115173 14.24388339
  19.12182067  9.04361594 11.38355200
   5.51049156  2.59826434 16.24653972
   4.76497818 15.05333538 12.64952801
   5.61963930 10.11918557 14.05536850
   1.43263024 11.33826098 16.76527933
   1.07865368 10.91526714  9.52151395
  18.75685635 17.75604924 16.28446312
  12.59506368  0.50191281 10.87439573
  14.18581247  5.65909304 16.26666412
  20.16990973  0.07395004  9.92550906
   2.22199659  2.70047811 12.55674536
   4.01803529  3.71625974 14.26196281
  15.00637423 12.76530097 12.22697399
  10.22576747  7.42551174 10.38808912
  13.46280683  1.05158250 15.35109179
   3.54535369 10.75328740 10.45651017
   6.26813510 10.91510113 10.54651395
  10.30702051  5.83862961 12.64390410
   5.57211440  2.87241773 11.55719116
   1.71341953  2.71357966 15.11916392
  19.78597114  9.93871522 16.05682031
  14.54261460  5.07285684 11.04652184
  14.10921452 16.15556596 12.56053950
   0.73477264  3.53889327 10.45741115
  14.24126139  3.53766864 14.71015787
   3.10901352 17.00414686 12.89022683
   1.87541730  5.07914980 13.75934155
   8.73757253  1.87024460 15.23544785
   1.57036926 12.63136456 14.39846666
  15.60335582  7.52728779 11.56015827
  18.71529746 13.23628237 15.17054029
  16.47777184 17.34580083 12.64014391
  13.94491047 11.46868764 14.92033089
  16.92262721  5.32192921 12.14235921
  22.88232093  5.70066535 14.71196018
   3.71348354 11.41687885 15.34147518
  14.82716522  5.92171361 13.65139239
  19.25779127  7.27114558 16.32541815
  22.44155659  0.49367766 11.20910044
   6.61061906  3.53570041 13.94217723
   5.83544193  8.02830396 12.39472924
   6.44559055 15.36341021 15.22182442
   4.76813504 12.42343385 13.08920785
   3.44435051  8.62697504 13.24126574
   5.27210434  7.64524586 14.96291434
  21.33745138  8.20429214 12.73515651
  20.36286723 12.76750071 12.47800922
  17.28034963  1.68227812 11.96927179
   5.20160189 16.84878525 10.96698378
   5.88694638  7.27643573 17.46180484
  14.77292901 16.03471219 15.92992218
   9.60385771 14.29878658 11.38342242
  21.48621551  3.55245637 13.66334053
   3.10309823  8.03742302  8.93260776
   3.63220806  5.50021683  8.34890949
   8.73253334  2.37219755  9.35415932
   0.81747907  5.27854397 17.01606397
  13.40739700  4.65476936  8.60535697
   5.76100081 13.98722431 17.43786781
   4.85490080 11.74990155  8.34376522
   6.44687148  7.10699146  9.87629901
   8.55333550 10.82900896  9.20004704
   5.29986878  1.01806603  9.62744117
   5.64688233  3.55318002  8.85384768
  11.73544815 16.16960912 12.22767567
  12.89124860 14.99276668 14.36350504
  12.81171124 11.91890174 17.13153235
  11.21037695  2.18156763 16.01514467
   6.16744366 12.56382809 15.28022322
  10.39408666 15.32108126 15.62236409
  17.93592617 11.20922801 17.45449786
  19.79144522 15.09600588 16.74364880
  15.04960355 13.43463787 16.68167029
   0.18742403  0.60483053 16.20800864
   6.68817670  0.00713794 15.92963596
  11.80389502 17.58315402 16.88474439
  11.55271634  8.31130741 19.79574068
   1.94841153 10.98908596 10.92575188
   9.59409990 13.85597135 15.43467954
  19.70678075  7.99967650 12.57708649
   0.40008717 17.94875972 10.58159830
   0.34415087  5.14987929 10.51358498
   0.22432193  2.07877888 15.38119489
  14.30618657 11.96645658 16.44491534
   5.00976645  8.61732321 13.70538323
  21.42278905 13.69169878 13.34099278
  12.18741762  2.00159257 11.45195358
   9.80956288  3.03476556 15.81128893
   1.95373172  2.52197018 10.94101594
  16.43233932  0.81266960 13.10088356
  15.56990048 16.27354967 11.76083937
  15.21965321  9.13359373 11.56390395
   4.64622069 16.53530673 12.47363180
   5.02067520  6.62988749 16.22169663
  15.79477509 14.78299686 15.96715255
   5.07795382 11.62186716 14.47532061
   8.63383069 13.32142384 12.34509184
  18.68286903 16.12428843 16.01206505
  20.60043073 16.53378609 13.76272441
  13.49717344 10.41886666 13.76492355
  13.81261136  2.09113022 14.11803133
  20.08975493  2.75647993 13.31199648
  19.57149143 10.96697206 17.33935704
   3.13099191  6.52942423  9.59392828
  18.51026388  5.07284540 11.87902451
   9.34522920  3.21642612 10.64589911
  20.04416341 13.61349504 16.03862215
   6.65199694 16.91527383 14.73999529
   0.54020936  5.98811771 13.50205012
  13.45117902 12.60314055 11.70943634
   5.39023881 13.63805193 12.15046292
  13.90951501  5.13903130 14.74158314
  22.83195788  4.92876297 16.19597624
  20.81044864  0.46044249 11.40392910
   2.45449709  3.54270639 13.91759215
   1.12715225 13.28353886 12.97472440
   5.43236872  3.72176303 15.07744644
  13.14328356  4.67138795 10.24864117
  11.25587491 11.45880908 16.84409917
   6.61880343 13.94797077 16.04709312
   4.88127424 11.65920104  9.99508876
  17.33509583 12.90618430 14.40466168
  23.10125669 17.94589801 14.79437093
  16.46058793 13.35205634 11.67438144
  18.44645930  1.09202012 15.50581938
  10.68289909  5.95194918 11.00303640
  10.55326216 16.93693128 15.95720285
  11.92894026  0.71858666 15.74469264
   5.71814202  6.71222076 11.31647527
  15.41693082  5.98004644 12.10686792
  10.78426902  5.73038855 14.20523246
   7.89661487 10.69048859 10.72869482
  18.82285827  8.67881017 15.57596984
   1.62029077 16.28843975 12.91760565
   4.96103076  2.61769098 10.04353415
   1.83153245  8.95161915 13.29886860
  13.05343995 15.44545689 12.76234739
  16.82710893 10.62304296 16.39121858
   6.71066321  3.80730339 12.34244318
   2.06954828 11.33744159 15.26057760
   8.29588187  0.32101119 15.50323215
  11.46837455  8.60580737 15.38422023
  11.32090719  9.04483285 18.27076712



--------------------------------------------------------------------------------------------------------


 k-point  1 :   0.0000 0.0000 0.0000  plane waves:  289505
 k-point  2 :   0.3333 0.0000 0.0000  plane waves:  289422
 k-point  3 :   0.0000 0.3333 0.0000  plane waves:  289550
 k-point  4 :   0.3333 0.3333 0.0000  plane waves:  289551
 k-point  5 :  -0.3333 0.3333 0.0000  plane waves:  289551

 maximum and minimum number of plane-waves per node :     72451    72309

 maximum number of plane-waves:    289551
 maximum index in each direction: 
   IXMAX=   43   IYMAX=   33   IZMAX=   49
   IXMIN=  -43   IYMIN=  -33   IZMIN=  -49


 real space projection operators:
  total allocation   :      13531.11 KBytes
  max/ min on nodes  :       3386.82       3380.53


 parallel 3D FFT for wavefunctions:
    minimum data exchange during FFTs selected (reduces bandwidth)
 parallel 3D FFT for charge:
    minimum data exchange during FFTs selected (reduces bandwidth)


 total amount of memory used by VASP MPI-rank0   691124. kBytes
=======================================================================

   base      :      30000. kBytes
   nonlr-proj:      16604. kBytes
   fftplans  :      30982. kBytes
   grid      :      57864. kBytes
   one-center:       1057. kBytes
   wavefun   :     554617. kBytes

     INWAV:  cpu time    0.0001: real time    0.0000
 Broyden mixing: mesh for mixing (old mesh)
   NGX = 85   NGY = 67   NGZ = 99
  (NGX  =256   NGY  =200   NGZ  =300)
  gives a total of 563805 points

 initial charge density was supplied:
 charge density of overlapping atoms calculated
 number of electron    1246.0000000 magnetization 
 keeping initial charge density in first step


--------------------------------------------------------------------------------------------------------


 Maximum index for non-local projection operator          669
 Maximum index for augmentation-charges          486 (set IRDMAX)


--------------------------------------------------------------------------------------------------------


 First call to EWALD:  gamma=   0.079
 Maximum number of real-space cells 3x 3x 2
 Maximum number of reciprocal cells 3x 2x 3

    FEWALD:  cpu time    0.0243: real time    0.0244


--------------------------------------- Iteration      1(   1)  ---------------------------------------


    POTLOK:  cpu time    0.2792: real time    0.2863
    SETDIJ:  cpu time    0.5736: real time    0.5754
     EDDAV:  cpu time   79.8169: real time   80.1237
       DOS:  cpu time    0.0018: real time    0.0018
    --------------------------------------------
      LOOP:  cpu time   80.6716: real time   80.9871

 eigenvalue-minimisations  :  8480
 total energy-change (2. order) : 0.1280128E+05  (-0.4873233E+05)
 number of electron    1246.0000000 magnetization 
 augmentation part     1246.0000000 magnetization 

 DIPCOR: dipole corrections for dipol
 direction  3 min pos    58,
 dipolmoment           0.000000      0.000000      0.068372 electrons x Angstroem
 Tr[quadrupol]    -93552.561358

 energy correction for charged system         0.000000 eV
 dipol+quadrupol energy correction           -0.000038 eV
 added-field ion interaction          7.001293 eV  (added to PSCEN)


 Free energy of the ion-electron system (eV)
  ---------------------------------------------------
  alpha Z        PSCENC =       486.93670229
  Ewald energy   TEWEN  =    307522.94377563
  -Hartree energ DENC   =   -369454.63906126
  -exchange      EXHF   =         0.00000000
  -V(xc)+E(xc)   XCENC  =      3742.48651061
  PAW double counting   =     59729.87451082   -58746.54997561
  entropy T*S    EENTRO =        -1.62099148
  eigenvalues    EBANDS =     -4840.72244410
  atomic energy  EATOM  =     74362.57199611
  Solvation  Ediel_sol  =         0.00000000
  ---------------------------------------------------
  free energy    TOTEN  =     12801.28102300 eV

  energy without entropy =    12802.90201448  energy(sigma->0) =    12802.09151874


--------------------------------------------------------------------------------------------------------




--------------------------------------- Iteration      1(   2)  ---------------------------------------


     EDDAV:  cpu time   95.8909: real time   96.2434
       DOS:  cpu time    0.0015: real time    0.0015
    --------------------------------------------
      LOOP:  cpu time   95.8924: real time   96.2449

 eigenvalue-minimisations  : 10656
 total energy-change (2. order) :-0.1212325E+05  (-0.1172744E+05)
 number of electron    1246.0000000 magnetization 
 augmentation part     1246.0000000 magnetization 

 DIPCOR: dipole corrections for dipol
 direction  3 min pos    58,
 dipolmoment           0.000000      0.000000      0.068372 electrons x Angstroem
 Tr[quadrupol]    -93552.561358

 energy correction for charged system         0.000000 eV
 dipol+quadrupol energy correction           -0.000038 eV
 added-field ion interaction          7.001293 eV  (added to PSCEN)


 Free energy of the ion-electron system (eV)
  ---------------------------------------------------
  alpha Z        PSCENC =       486.93670229
  Ewald energy   TEWEN  =    307522.94377563
  -Hartree energ DENC   =   -369454.63906126
  -exchange      EXHF   =         0.00000000
  -V(xc)+E(xc)   XCENC  =      3742.48651061
  PAW double counting   =     59729.87451082   -58746.54997561
  entropy T*S    EENTRO =        -0.00002255
  eigenvalues    EBANDS =    -16965.59398030
  atomic energy  EATOM  =     74362.57199611
  Solvation  Ediel_sol  =         0.00000000
  ---------------------------------------------------
  free energy    TOTEN  =       678.03045573 eV

  energy without entropy =      678.03047828  energy(sigma->0) =      678.03046700


--------------------------------------------------------------------------------------------------------




--------------------------------------- Iteration      1(   3)  ---------------------------------------


     EDDAV:  cpu time   82.5148: real time   82.8153
       DOS:  cpu time    0.0017: real time    0.0017
    --------------------------------------------
      LOOP:  cpu time   82.5165: real time   82.8170

 eigenvalue-minimisations  :  8848
 total energy-change (2. order) :-0.2656262E+04  (-0.2646682E+04)
 number of electron    1246.0000000 magnetization 
 augmentation part     1246.0000000 magnetization 

 DIPCOR: dipole corrections for dipol
 direction  3 min pos    58,
 dipolmoment           0.000000      0.000000      0.068372 electrons x Angstroem
 Tr[quadrupol]    -93552.561358

 energy correction for charged system         0.000000 eV
 dipol+quadrupol energy correction           -0.000038 eV
 added-field ion interaction          7.001293 eV  (added to PSCEN)


 Free energy of the ion-electron system (eV)
  ---------------------------------------------------
  alpha Z        PSCENC =       486.93670229
  Ewald energy   TEWEN  =    307522.94377563
  -Hartree energ DENC   =   -369454.63906126
  -exchange      EXHF   =         0.00000000
  -V(xc)+E(xc)   XCENC  =      3742.48651061
  PAW double counting   =     59729.87451082   -58746.54997561
  entropy T*S    EENTRO =        -0.16085466
  eigenvalues    EBANDS =    -19621.69484847
  atomic energy  EATOM  =     74362.57199611
  Solvation  Ediel_sol  =         0.00000000
  ---------------------------------------------------
  free energy    TOTEN  =     -1978.23124455 eV

  energy without entropy =    -1978.07038989  energy(sigma->0) =    -1978.15081722


--------------------------------------------------------------------------------------------------------




--------------------------------------- Iteration      1(   4)  ---------------------------------------


     EDDAV:  cpu time   81.6600: real time   81.9581
       DOS:  cpu time    0.0018: real time    0.0018
    --------------------------------------------
      LOOP:  cpu time   81.6618: real time   81.9598

 eigenvalue-minimisations  :  8736
 total energy-change (2. order) :-0.9695845E+02  (-0.9654383E+02)
 number of electron    1246.0000000 magnetization 
 augmentation part     1246.0000000 magnetization 

[...]
     20.26706     17.52644     12.55557        -0.041545      1.318735     -1.018262
      7.04790     13.78912     12.31057        -0.264467     -0.093853     -0.085908
      9.87046      4.73421     10.20483         0.415405      0.031721      0.522778
     18.98256      8.43550     13.97681         0.011455     -0.005353      0.005034
     23.04517      1.30673     13.99987        -0.000960      0.023924      0.017616
     12.11604      8.04274     16.83387        -0.006741     -0.003833      0.022999
      0.80854     16.67059     11.54386        -0.108869      0.448365     -0.264036
     22.54593      5.49427      9.44299         0.187559     -0.185298      0.416636
      1.63005      6.09065     10.11814         0.298774     -0.131142     -0.026199
      4.87647     13.20394     10.62861         0.430671     -0.157391      0.434875
      0.91073      7.59465     13.41772         0.457979      0.067283      0.176688
      5.61946      5.16457     15.81431         0.008920      0.006182      0.001211
      9.30046      3.48398     17.30020         0.002199      0.024288      0.013197
     10.82222     10.06022     15.96519         0.015151      0.009228      0.000141
     21.30059     13.57877     14.98657         0.014184     -0.009375      0.002173
     20.34739      1.95788     11.88993        -0.082172     -0.041023      0.443027
     13.40476     12.09288     10.11169        -0.266861      0.182393      0.122937
      3.33439      2.88355     10.10740        -0.024888     -0.058954      0.194463
      8.23662     13.85067     16.31748        -0.029055      0.010552      0.009963
     21.32760     15.31331     12.98949         0.320938     -1.484296      0.187836
      1.43600      9.72878     11.88926         0.539448      0.264762      0.077290
     16.58313     10.06030     11.28988        -0.153684     -0.556708     -0.025093
      1.76725     14.80155     12.98451        -0.021046     -6.368281      0.281827
     16.39879     14.99633     11.63069         1.806910     -3.831220     -0.229214
     17.09738      0.89298     14.59588         0.003024     -0.005215      0.021452
     21.50674      5.44441     16.98926        -0.004486      0.002297      0.000882
     17.22234     15.48557     16.47338        -0.004804     -0.010170      0.004594
     14.63491      9.55703     13.07550         1.732069     -1.084591     -0.939629
     13.03010     11.41100     12.56124        -3.504276     -2.762129      1.838604
      9.98170      4.43967     14.90759         0.004639     -0.001457     -0.006380
     22.90304     13.19668     12.81787         0.427550      0.286752      0.257243
     15.32673     10.79757     17.03824        -0.007957     -0.005660      0.002931
      9.29879     13.51934     13.84515        -0.015741      0.001727      0.014251
     14.10975      9.38074     10.36813         0.272916     -0.117176      0.396213
     16.82693     11.47262     14.98059         0.005362     -0.001320      0.006985
      3.43277      6.59094     16.63356        -0.023417     -0.019948     -0.005187
      1.56195      9.94030     14.57145        -0.004682      0.007609      0.005547
     19.17198     16.04293     14.42449        -0.021466     -0.005696      0.005705
     19.38960      6.44002     12.14868        -0.139138      0.251927      0.199770
     12.35878      5.39285     14.29895        -0.000199      0.006456     -0.000053
     17.26527      9.07776     15.99754         0.005639     -0.000346      0.005363
     13.05025      3.12466     10.61647        -1.380727     -1.819793      0.531544
     18.86866      4.64651     10.30420        -0.047365     -0.022826      0.760576
      5.55892     17.27408     13.65459        -0.839087      0.160684     -0.978533
     16.23234     14.10848     14.53289         0.005747     -0.005563     -0.002802
     21.63105     17.21240     14.86363         0.005427     -0.000763      0.003284
     12.30819      5.75859     10.71453        -7.883346      6.666253      3.205886
     11.00155     17.91841     14.66076        -0.021844     -0.006488      0.003854
     19.61440      1.72393     14.51207         0.005032      0.010542     -0.006863
     12.59301      2.10963     13.07169        -2.056760      0.600576     -0.976927
      8.19848      3.38158     11.81891        -0.093108      0.163153      0.022110
      0.27532     17.44013      9.01248        -0.249507      0.114428      0.330284
     10.73756     10.87907     18.32916         0.007774     -0.008303      0.016678
     15.33358     16.76935     10.19493        -0.568994      0.122749      0.629068
      1.78613     12.43164     11.71795         0.013968     -0.136208      0.094557
     10.59925      7.30862     14.82511        -0.003603      0.001125      0.000489
     16.83786     12.69249     10.20447        -0.063613      0.273642      0.497692
     10.55747     12.70585     16.07524        -0.016679     -0.020839      0.014086
     17.61819     12.85384     12.80443        -0.356757      0.250324     -1.099396
     18.23128      2.21529     16.68050        -0.001520     -0.012511     -0.001927
     23.25384      5.58159     12.05458         0.262019      0.007651     -0.016970
     12.45483      9.22115     14.24388        -0.002051      0.010441      0.009611
     19.12182      9.04362     11.38355         0.334206     -0.381929      0.411225
      5.51049      2.59826     16.24654        -0.009534      0.015589      0.004659
      4.76498     15.05334     12.64953         0.595916     -6.690899      0.316283
      5.61964     10.11919     14.05537         0.005673     -0.003824     -0.007548
      1.43263     11.33826     16.76528         0.000113     -0.004889     -0.002873
      1.07865     10.91527      9.52151         0.188924      0.220367      0.441772
     18.75686     17.75605     16.28446         0.005100      0.002486     -0.008198
     12.59506      0.50191     10.87440        -0.226343      0.381062      0.169588
     14.18581      5.65909     16.26666         0.018548      0.012217     -0.006729
     20.16991      0.07395      9.92551        -0.069622      0.005644      0.301654
      2.22200      2.70048     12.55675        -0.026778     -0.045625     -0.812572
      4.01804      3.71626     14.26196        -0.000711     -0.012187      0.003362
     15.00637     12.76530     12.22697         2.605934      0.176596     -0.586719
     10.22577      7.42551     10.38809         0.260754     -0.707797      0.537665
     13.46281      1.05158     15.35109         0.000897     -0.006038     -0.002804
      3.54535     10.75329     10.45651         0.005847      0.705700      0.081842
      6.26814     10.91510     10.54651         0.170331      0.310557      0.047428
     10.30702      5.83863     12.64390         0.342286     -0.012157     -0.968730
      5.57211      2.87242     11.55719         0.331848      0.285240     -0.346565
      1.71342      2.71358     15.11916        -0.001997     -0.003549      0.006798
     19.78597      9.93872     16.05682         0.001831      0.007503     -0.002302
     14.54261      5.07286     11.04652         1.379829      0.659344      0.844285
     14.10921     16.15557     12.56054        23.515738     14.644283     -4.528930
      0.73477      3.53889     10.45741         0.420000      0.153191      0.274047
     14.24126      3.53767     14.71016        -0.007616     -0.023298      0.003567
      3.10901     17.00415     12.89023         0.030640     -0.142164     -0.333308
      1.87542      5.07915     13.75934        -0.000584     -0.000733     -0.009282
      8.73757      1.87024     15.23545        -0.015273     -0.004278      0.028366
      1.57037     12.63136     14.39847        -0.002791     -0.001856      0.006589
     15.60336      7.52729     11.56016        -0.345187      0.234545      0.460159
     18.71530     13.23628     15.17054         0.000077      0.005671      0.014025
     16.47777     17.34580     12.64014        -0.779700      0.366599     -0.204353
     13.94491     11.46869     14.92033         0.007867     -0.000166     -0.010088
     16.92263      5.32193     12.14236         0.224489      0.062623     -0.022206
     22.88232      5.70067     14.71196        -0.011391     -0.012743     -0.003871
      3.71348     11.41688     15.34148         0.012699     -0.006175     -0.011765
     14.82717      5.92171     13.65139         0.375423      0.220865     -0.685582
     19.25779      7.27115     16.32542        -0.008469     -0.011740     -0.006047
     22.44156      0.49368     11.20910        -0.299184     -0.376831     -0.332500
      6.61062      3.53570     13.94218        -0.004047     -0.010418      0.001929
      5.83544      8.02830     12.39473        -0.019481     -0.739940     -0.669942
      6.44559     15.36341     15.22182        -0.014136      0.009006     -0.009023
      4.76814     12.42343     13.08921         0.289118      0.509543     -0.308571
      3.44435      8.62698     13.24127        -0.251927      0.050972      0.214520
      5.27210      7.64525     14.96291         0.003692      0.004509      0.001355
     21.33745      8.20429     12.73516        -0.263264     -0.136919     -0.127407
     20.36287     12.76750     12.47801         0.322256      0.279795      0.441691
     17.28035      1.68228     11.96927        -0.175577     -0.267896      0.471853
      5.20160     16.84879     10.96698        -0.327402      0.364146      0.365522
      5.88695      7.27644     17.46180        -0.000902     -0.005129     -0.011903
     14.77293     16.03471     15.92992        -0.020172     -0.018838      0.001216
      9.60386     14.29879     11.38342        -0.521544     -0.403965      0.302254
     21.48622      3.55246     13.66334        -0.756125     -0.040096     -0.142530
      3.10310      8.03742      8.93261         0.097771     -0.239847      0.317859
      3.63221      5.50022      8.34891        -0.159618      0.544610      0.360642
      8.73253      2.37220      9.35416         0.195117      0.607355      0.351354
      0.81748      5.27854     17.01606        -0.029140     -0.010360     -0.003577
     13.40740      4.65477      8.60536        -0.207762      0.164476      0.228229
      5.76100     13.98722     17.43787        -0.011049     -0.006705      0.005678
      4.85490     11.74990      8.34377         0.079149     -0.129336      0.510553
      6.44687      7.10699      9.87630         0.027159      0.048312      0.704219
      8.55334     10.82901      9.20005        -0.082712     -0.022822      0.757652
      5.29987      1.01807      9.62744        -0.070968      0.790328      0.120174
      5.64688      3.55318      8.85385        -0.373401     -0.059308      0.457680
     11.73545     16.16961     12.22768        -2.207826      1.005159     -0.678900
     12.89125     14.99277     14.36351        -0.003868      0.019027     -0.012921
     12.81171     11.91890     17.13153         0.010214     -0.014527     -0.017447
     11.21038      2.18157     16.01514         0.014108      0.003245      0.003693
      6.16744     12.56383     15.28022        -0.004227     -0.010038     -0.012191
     10.39409     15.32108     15.62236         0.004623      0.006899      0.004898
     17.93593     11.20923     17.45450         0.001485     -0.018076      0.032122
     19.79145     15.09601     16.74365        -0.005994     -0.017709     -0.005119
     15.04960     13.43464     16.68167        -0.007156     -0.009607      0.005484
      0.18742      0.60483     16.20801         0.009216     -0.001293      0.002445
      6.68818      0.00714     15.92964         0.003073      0.004595      0.008769
     11.80390     17.58315     16.88474        -0.002840      0.003389      0.000352
     11.55272      8.31131     19.79574        -0.016037     -0.014611      0.024226
      1.94841     10.98909     10.92575        -0.073690     -0.134045      0.044925
      9.59410     13.85597     15.43468        -0.003497     -0.002676      0.006353
     19.70678      7.99968     12.57709         0.130084     -0.166571     -0.331279
      0.40009     17.94876     10.58160         0.086842     -0.125329      0.309531
      0.34415      5.14988     10.51358         0.031502      0.035689      0.073866
      0.22432      2.07878     15.38119        -0.002681      0.004764      0.005351
     14.30619     11.96646     16.44492        -0.000777     -0.000928      0.002191
      5.00977      8.61732     13.70538         0.000324      0.003965     -0.000026
     21.42279     13.69170     13.34099         0.206740      0.248771     -0.645803
     12.18742      2.00159     11.45195         0.170627     -0.078002      0.464656
      9.80956      3.03477     15.81129         0.002515     -0.003181      0.001411
      1.95373      2.52197     10.94102         0.064000     -0.116336      0.066080
     16.43234      0.81267     13.10088         0.101029     -0.066306     -0.308187
     15.56990     16.27355     11.76084        -0.454980      4.560022     -0.205826
     15.21965      9.13359     11.56390         0.154094      0.009913      0.130817
      4.64622     16.53531     12.47363        -0.765854      6.168133     -0.385130
      5.02068      6.62989     16.22170         0.003640      0.007187     -0.003060
     15.79478     14.78300     15.96715        -0.002417     -0.004410     -0.000680
      5.07795     11.62187     14.47532        -0.003333      0.004007      0.007345
      8.63383     13.32142     12.34509        -0.393164     -0.027999     -0.204077
     18.68287     16.12429     16.01207         0.001506      0.000508      0.003521
     20.60043     16.53379     13.76272         0.005199     -0.000823     -0.000511
     13.49717     10.41887     13.76492         0.001638      0.001455      0.001049
     13.81261      2.09113     14.11803        -0.002716      0.000959      0.005566
     20.08975      2.75648     13.31200        -0.143089      0.058747     -0.463609
     19.57149     10.96697     17.33936         0.000956     -0.010752      0.010897
      3.13099      6.52942      9.59393        -0.109499     -0.112888      0.049156
     18.51026      5.07285     11.87902        -0.246897      0.090864      0.085851
      9.34523      3.21643     10.64590        -0.163016     -0.319634      0.221601
     20.04416     13.61350     16.03862        -0.004195      0.007211     -0.000507
      6.65200     16.91527     14.74000        -0.003825      0.006443      0.005608
      0.54021      5.98812     13.50205         0.236800      0.206038     -0.380141
     13.45118     12.60314     11.70944         3.948035     -0.765205     -2.546031
      5.39024     13.63805     12.15046         0.093314     -0.585773      0.009738
     13.90952      5.13903     14.74158        -0.000028      0.008711      0.008236
     22.83196      4.92876     16.19598         0.004489      0.001465      0.005726
     20.81045      0.46044     11.40393         0.025182      0.048373      0.110428
      2.45450      3.54271     13.91759        -0.002008     -0.002054     -0.002034
      1.12715     13.28354     12.97472        -0.107371     -0.543306     -0.257964
      5.43237      3.72176     15.07745        -0.004980     -0.001381     -0.001838
     13.14328      4.67139     10.24864         8.360541     -5.368227     -3.598602
     11.25587     11.45881     16.84410        -0.006611     -0.012137      0.010959
      6.61880     13.94797     16.04709        -0.008051      0.004080      0.001819
      4.88127     11.65920      9.99509         0.048844     -0.071119      0.010919
     17.33510     12.90618     14.40466         0.005217     -0.003023     -0.003336
     23.10126     17.94590     14.79437         0.004243      0.004457      0.000468
     16.46059     13.35206     11.67438        -0.634776     -1.318298      0.346675
     18.44646      1.09202     15.50582        -0.006538      0.000928     -0.002400
     10.68290      5.95195     11.00304        -1.156564      0.511914      0.395972
     10.55326     16.93693     15.95720        -0.001817     -0.000803     -0.000521
     11.92894      0.71859     15.74469        -0.007695      0.000049      0.000575
      5.71814      6.71222     11.31648         0.008319     -0.119898     -0.102413
     15.41693      5.98005     12.10687        -0.120909     -0.511005     -0.809509
     10.78427      5.73039     14.20523        -0.001044      0.000451      0.002773
      7.89661     10.69049     10.72869        -0.159935     -0.083284     -0.084150
     18.82286      8.67881     15.57597         0.003585     -0.003885      0.002044
      1.62029     16.28844     12.91761        -0.325445      6.390415     -0.519995
      4.96103      2.61769     10.04353        -0.085269     -0.038042      0.058224
      1.83153      8.95162     13.29887         0.037833     -0.140933     -0.289074
     13.05344     15.44546     12.76235       -22.256671    -15.830701      4.704623
     16.82711     10.62304     16.39122        -0.002415      0.000262      0.000207
      6.71066      3.80730     12.34244        -0.215728      0.012734     -0.802298
      2.06955     11.33744     15.26058        -0.001727     -0.004214      0.002690
      8.29588      0.32101     15.50323        -0.005518      0.000582      0.011943
     11.46837      8.60581     15.38422         0.001720      0.001685      0.006118
     11.32091      9.04483     18.27077        -0.013053     -0.014319      0.021395
 -----------------------------------------------------------------------------------
    total drift:                                0.377690      0.139300     -0.051637


--------------------------------------------------------------------------------------------------------



  FREE ENERGIE OF THE ION-ELECTRON SYSTEM (eV)
  ---------------------------------------------------
  free  energy   TOTEN  =     -1852.53225043 eV

  energy  without entropy=    -1852.53222503  energy(sigma->0) =    -1852.53223773



--------------------------------------------------------------------------------------------------------


    POTLOK:  cpu time    0.8283: real time    0.8308


--------------------------------------------------------------------------------------------------------


 stress matrix after NEB project (eV)
    -32.37976      0.10491      0.22291
      0.10491    -33.18178     -0.35471
      0.22291     -0.35471    -25.11491
  FORCES: max atom, RMS     0.036888    0.010511
  FORCE total and by dimension    0.172714    0.032122
  Stress total and by dimension   52.731502   33.181783
 Quasi-Newton relaxation of ions (Broydens 2nd method)
  g(Force)  = 0.144E-02   g(Stress)= 0.000E+00

 Reset! Starting new Quasi-Newton update for ions 


--------------------------------------------------------------------------------------------------------


  
 reached required accuracy - stopping structural energy minimisation
     LOOP+:  cpu time 1234.5917: real time 1239.2392
    4ORBIT:  cpu time    0.0000: real time    0.0000

 total amount of memory used by VASP MPI-rank0   691124. kBytes
=======================================================================

   base      :      30000. kBytes
   nonlr-proj:      16604. kBytes
   fftplans  :      30982. kBytes
   grid      :      57864. kBytes
   one-center:       1057. kBytes
   wavefun   :     554617. kBytes

  
  
 General timing and accounting informations for this job:
 ========================================================
  
                  Total CPU time used (sec):     1336.645
                            User time (sec):     1333.657
                          System time (sec):        2.988
                         Elapsed time (sec):     1343.594
  
                   Maximum memory used (kb):      980828.
                   Average memory used (kb):           0.
  
                          Minor page faults:      2865237
                          Major page faults:          211
                 Voluntary context switches:         5908
