 vasp.5.4.4.18Apr17-6-g9f103f2a35 (build May 20 2022 18:47:50) complex           
 executed on             LinuxPGI date 2022.08.31  14:30:02
 running on  256 total cores
 distrk:  each k-point on  256 cores,    1 groups
 distr:  one band on NCORES_PER_BAND=   4 cores,   64 groups


--------------------------------------------------------------------------------------------------------


 INCAR:
 POTCAR:    PAW_PBE C 08Apr2002                   
 POTCAR:    PAW_PBE H 15Jun2001                   
 POTCAR:    PAW_PBE O 08Apr2002                   
 POTCAR:    PAW_PBE Si 05Jan2001                  
 POTCAR:    PAW_PBE W 08Apr2002                   

 ----------------------------------------------------------------------------- 
|                                                                             |
|           W    W    AA    RRRRR   N    N  II  N    N   GGGG   !!!           |
|           W    W   A  A   R    R  NN   N  II  NN   N  G    G  !!!           |
|           W    W  A    A  R    R  N N  N  II  N N  N  G       !!!           |
|           W WW W  AAAAAA  RRRRR   N  N N  II  N  N N  G  GGG   !            |
|           WW  WW  A    A  R   R   N   NN  II  N   NN  G    G                |
|           W    W  A    A  R    R  N    N  II  N    N   GGGG   !!!           |
|                                                                             |
|      For optimal performance we recommend to set                            |
|        NCORE= 4 - approx SQRT( number of cores)                             |
|      NCORE specifies how many cores store one orbital (NPAR=cpu/NCORE).     |
|      This setting can  greatly improve the performance of VASP for DFT.     |
|      The default,   NCORE=1            might be grossly inefficient         |
|      on modern multi-core architectures or massively parallel machines.     |
|      Do your own testing !!!!                                               |
|      Unfortunately you need to use the default for GW and RPA calculations. |
|      (for HF NCORE is supported but not extensively tested yet)             |
|                                                                             |
 ----------------------------------------------------------------------------- 

 POTCAR:    PAW_PBE C 08Apr2002                   
   VRHFIN =C: s2p2                                                              
   LEXCH  = PE                                                                  
   EATOM  =   147.1560 eV,   10.8157 Ry                                         
                                                                                
   TITEL  = PAW_PBE C 08Apr2002                                                 
   LULTRA =        F    use ultrasoft PP ?                                      
   IUNSCR =        1    unscreen: 0-lin 1-nonlin 2-no                           
   RPACOR =    1.200    partial core radius                                     
   POMASS =   12.011; ZVAL   =    4.000    mass and valenz                      
   RCORE  =    1.500    outmost cutoff radius                                   
   RWIGS  =    1.630; RWIGS  =    0.863    wigner-seitz radius (au A)           
   ENMAX  =  400.000; ENMIN  =  300.000 eV                                      
   ICORE  =        2    local potential                                         
   LCOR   =        T    correct aug charges                                     
   LPAW   =        T    paw PP                                                  
   EAUG   =  644.873                                                            
   DEXC   =    0.000                                                            
   RMAX   =    1.529    core radius for proj-oper                               
   RAUG   =    1.300    factor for augmentation sphere                          
   RDEP   =    1.501    radius for radial grids                                 
   RDEPT  =    1.300    core radius for aug-charge                              
                                                                                
   Atomic configuration                                                         
    4 entries                                                                   
     n  l   j            E        occ.                                          
     1  0  0.50      -273.3789   2.0000                                         
     2  0  0.50       -13.7508   2.0000                                         
     2  1  0.50        -5.2854   2.0000                                         
     3  2  1.50        -5.4423   0.0000                                         
   Description                                                                  
     l       E           TYP  RCUT    TYP  RCUT                                 
     0    -13.7508458     23  1.200                                             
     0     -8.2022199     23  1.200                                             
     1     -5.2854383     23  1.500                                             
     1     34.0145650     23  1.500                                             
     2     -5.4423304      7  1.500                                             
  local pseudopotential read in
  partial core-charges read in
  partial kinetic energy density read in
  atomic valenz-charges read in
  non local Contribution for L=            0  read in
    real space projection operators read in
  non local Contribution for L=            0  read in
    real space projection operators read in
  non local Contribution for L=            1  read in
    real space projection operators read in
  non local Contribution for L=            1  read in
    real space projection operators read in
    PAW grid and wavefunctions read in
 
   number of l-projection  operators is LMAX  =            4
   number of lm-projection operators is LMMAX =            8
 
 POTCAR:    PAW_PBE H 15Jun2001                   
   VRHFIN =H: ultrasoft test                                                    
   LEXCH  = PE                                                                  
   EATOM  =    12.4884 eV,    0.9179 Ry                                         
                                                                                
   TITEL  = PAW_PBE H 15Jun2001                                                 
   LULTRA =        F    use ultrasoft PP ?                                      
   IUNSCR =        0    unscreen: 0-lin 1-nonlin 2-no                           
   RPACOR =    0.000    partial core radius                                     
   POMASS =    1.000; ZVAL   =    1.000    mass and valenz                      
   RCORE  =    1.100    outmost cutoff radius                                   
   RWIGS  =    0.700; RWIGS  =    0.370    wigner-seitz radius (au A)           
   ENMAX  =  250.000; ENMIN  =  200.000 eV                                      
   RCLOC  =    0.701    cutoff for local pot                                    
   LCOR   =        T    correct aug charges                                     
   LPAW   =        T    paw PP                                                  
   EAUG   =  400.000                                                            
   RMAX   =    1.123    core radius for proj-oper                               
   RAUG   =    1.200    factor for augmentation sphere                          
   RDEP   =    1.112    radius for radial grids                                 
   RDEPT  =    0.926    core radius for aug-charge                              
                                                                                
   Atomic configuration                                                         
    2 entries                                                                   
     n  l   j            E        occ.                                          
     1  0  0.50        -6.4927   1.0000                                         
     2  1  0.50        -3.4015   0.0000                                         
   Description                                                                  
     l       E           TYP  RCUT    TYP  RCUT                                 
     0     -6.4927494     23  1.100                                             
     0      6.8029130     23  1.100                                             
     1     -4.0817478     23  1.100                                             
  local pseudopotential read in
  atomic valenz-charges read in
  non local Contribution for L=            0  read in
    real space projection operators read in
  non local Contribution for L=            0  read in
    real space projection operators read in
  non local Contribution for L=            1  read in
    real space projection operators read in
    PAW grid and wavefunctions read in
 
   number of l-projection  operators is LMAX  =            3
   number of lm-projection operators is LMMAX =            5
 
 POTCAR:    PAW_PBE O 08Apr2002                   
   VRHFIN =O: s2p4                                                              
   LEXCH  = PE                                                                  
   EATOM  =   432.3788 eV,   31.7789 Ry                                         
                                                                                
   TITEL  = PAW_PBE O 08Apr2002                                                 
   LULTRA =        F    use ultrasoft PP ?                                      
   IUNSCR =        1    unscreen: 0-lin 1-nonlin 2-no                           
   RPACOR =    1.200    partial core radius                                     
   POMASS =   16.000; ZVAL   =    6.000    mass and valenz                      
   RCORE  =    1.520    outmost cutoff radius                                   
   RWIGS  =    1.550; RWIGS  =    0.820    wigner-seitz radius (au A)           
   ENMAX  =  400.000; ENMIN  =  300.000 eV                                      
   ICORE  =        2    local potential                                         
   LCOR   =        T    correct aug charges                                     
   LPAW   =        T    paw PP                                                  
   EAUG   =  605.392                                                            
   DEXC   =    0.000                                                            
   RMAX   =    1.553    core radius for proj-oper                               
   RAUG   =    1.300    factor for augmentation sphere                          
   RDEP   =    1.550    radius for radial grids                                 
   RDEPT  =    1.329    core radius for aug-charge                              
                                                                                
   Atomic configuration                                                         
    4 entries                                                                   
     n  l   j            E        occ.                                          
     1  0  0.50      -514.6923   2.0000                                         
     2  0  0.50       -23.9615   2.0000                                         
     2  1  0.50        -9.0305   4.0000                                         
     3  2  1.50        -9.5241   0.0000                                         
   Description                                                                  
     l       E           TYP  RCUT    TYP  RCUT                                 
     0    -23.9615318     23  1.200                                             
     0     -9.5240782     23  1.200                                             
     1     -9.0304911     23  1.520                                             
     1      8.1634956     23  1.520                                             
     2     -9.5240782      7  1.500                                             
  local pseudopotential read in
  partial core-charges read in
  partial kinetic energy density read in
  kinetic energy density of atom read in
  atomic valenz-charges read in
  non local Contribution for L=            0  read in
    real space projection operators read in
  non local Contribution for L=            0  read in
    real space projection operators read in
  non local Contribution for L=            1  read in
    real space projection operators read in
  non local Contribution for L=            1  read in
    real space projection operators read in
    PAW grid and wavefunctions read in
 
   number of l-projection  operators is LMAX  =            4
   number of lm-projection operators is LMMAX =            8
 
 POTCAR:    PAW_PBE Si 05Jan2001                  
   VRHFIN =Si: s2p2                                                             
   LEXCH  = PE                                                                  
   EATOM  =   103.0669 eV,    7.5752 Ry                                         
                                                                                
   TITEL  = PAW_PBE Si 05Jan2001                                                
   LULTRA =        F    use ultrasoft PP ?                                      
   IUNSCR =        1    unscreen: 0-lin 1-nonlin 2-no                           
   RPACOR =    1.500    partial core radius                                     
   POMASS =   28.085; ZVAL   =    4.000    mass and valenz                      
   RCORE  =    1.900    outmost cutoff radius                                   
   RWIGS  =    2.480; RWIGS  =    1.312    wigner-seitz radius (au A)           
   ENMAX  =  245.345; ENMIN  =  184.009 eV                                      
   ICORE  =        2    local potential                                         
   LCOR   =        T    correct aug charges                                     
   LPAW   =        T    paw PP                                                  
   EAUG   =  322.069                                                            
   DEXC   =    0.000                                                            
   RMAX   =    1.950    core radius for proj-oper                               
   RAUG   =    1.300    factor for augmentation sphere                          
   RDEP   =    1.993    radius for radial grids                                 
   RDEPT  =    1.837    core radius for aug-charge                              
                                                                                
   Atomic configuration                                                         
    6 entries                                                                   
     n  l   j            E        occ.                                          
     1  0  0.50     -1785.8828   2.0000                                         
     2  0  0.50      -139.4969   2.0000                                         
     2  1  1.50       -95.5546   6.0000                                         
     3  0  0.50       -10.8127   2.0000                                         
     3  1  0.50        -4.0811   2.0000                                         
     3  2  1.50        -4.0817   0.0000                                         
   Description                                                                  
     l       E           TYP  RCUT    TYP  RCUT                                 
     0    -10.8127223     23  1.900                                             
     0     -7.6451159     23  1.900                                             
     1     -4.0811372     23  1.900                                             
     1      2.4879257     23  1.900                                             
     2     -4.0817478      7  1.900                                             
  local pseudopotential read in
  partial core-charges read in
  partial kinetic energy density read in
  atomic valenz-charges read in
  non local Contribution for L=            0  read in
    real space projection operators read in
  non local Contribution for L=            0  read in
    real space projection operators read in
  non local Contribution for L=            1  read in
    real space projection operators read in
  non local Contribution for L=            1  read in
    real space projection operators read in
    PAW grid and wavefunctions read in
 
   number of l-projection  operators is LMAX  =            4
   number of lm-projection operators is LMMAX =            8
 
 POTCAR:    PAW_PBE W 08Apr2002                   
   VRHFIN =W : 6s5d                                                             
   LEXCH  = PE                                                                  
   EATOM  =   204.6103 eV,   15.0384 Ry                                         
                                                                                
   TITEL  = PAW_PBE W 08Apr2002                                                 
   LULTRA =        F    use ultrasoft PP ?                                      
   IUNSCR =        1    unscreen: 0-lin 1-nonlin 2-no                           
   RPACOR =    2.330    partial core radius                                     
   POMASS =  183.850; ZVAL   =    6.000    mass and valenz                      
   RCORE  =    2.750    outmost cutoff radius                                   
   RWIGS  =    2.750; RWIGS  =    1.455    wigner-seitz radius (au A)           
   ENMAX  =  223.057; ENMIN  =  167.293 eV                                      
   RCLOC  =    2.147    cutoff for local pot                                    
   LCOR   =        T    correct aug charges                                     
   LPAW   =        T    paw PP                                                  
   EAUG   =  373.438                                                            
   DEXC   =    0.000                                                            
   RMAX   =    2.801    core radius for proj-oper                               
   RAUG   =    1.300    factor for augmentation sphere                          
   RDEP   =    2.886    radius for radial grids                                 
   RDEPT  =    2.230    core radius for aug-charge                              
                                                                                
   Atomic configuration                                                         
   16 entries                                                                   
     n  l   j            E        occ.                                          
     1  0  0.50    -69465.5836   2.0000                                         
     2  0  0.50    -11986.2642   2.0000                                         
     2  1  1.50    -10479.8616   6.0000                                         
     3  0  0.50     -2759.0758   2.0000                                         
     3  1  1.50     -2313.1857   6.0000                                         
     3  2  2.50     -1801.1185  10.0000                                         
     4  0  0.50      -567.6791   2.0000                                         
     4  1  1.50      -421.4694   6.0000                                         
     4  2  2.50      -236.3473  10.0000                                         
     4  3  3.50       -31.2666  14.0000                                         
     5  0  0.50       -77.1085   2.0000                                         
     5  1  1.50       -41.3856   6.0000                                         
     5  2  2.50        -3.3185   5.0000                                         
     6  0  0.50        -5.1438   1.0000                                         
     6  1  0.50        -3.8096   0.0000                                         
     5  3  2.50        -1.3606   0.0000                                         
   Description                                                                  
     l       E           TYP  RCUT    TYP  RCUT                                 
     2     -3.3185288     23  2.500                                             
     2     -1.5965414     23  2.500                                             
     0     -5.1438054     23  2.500                                             
     0      4.9117504     23  2.500                                             
     1      2.7211652     23  2.750                                             
     1     27.2116520     23  2.750                                             
  local pseudopotential read in
  partial core-charges read in
  partial kinetic energy density read in
  atomic valenz-charges read in
  non local Contribution for L=            2  read in
    real space projection operators read in
  non local Contribution for L=            2  read in
    real space projection operators read in
  non local Contribution for L=            0  read in
    real space projection operators read in
  non local Contribution for L=            0  read in
    real space projection operators read in
  non local Contribution for L=            1  read in
    real space projection operators read in
  non local Contribution for L=            1  read in
    real space projection operators read in
    PAW grid and wavefunctions read in
 
   number of l-projection  operators is LMAX  =            6
   number of lm-projection operators is LMMAX =           18
 
 Optimization of the real space projectors (new method)

 maximal supplied QI-value         = 25.13
 optimisation between [QCUT,QGAM] = [ 11.31, 22.87] = [ 35.82,146.48] Ry 
 Optimized for a Real-space Cutoff    1.00 Angstroem

   l    n(q)    QCUT    max X(q) W(low)/X(q) W(high)/X(q)  e(spline) 
   0      7    11.310   115.676    0.43E-03    0.13E-02    0.19E-06
   0      7    11.310    87.132    0.43E-03    0.13E-02    0.18E-06
   1      6    11.310     4.429    0.42E-03    0.74E-03    0.11E-06
   1      6    11.310     2.733    0.34E-03    0.55E-03    0.92E-07
 Optimization of the real space projectors (new method)

 maximal supplied QI-value         = 34.20
 optimisation between [QCUT,QGAM] = [ 11.29, 22.57] = [ 35.68,142.71] Ry 
 Optimized for a Real-space Cutoff    1.16 Angstroem

   l    n(q)    QCUT    max X(q) W(low)/X(q) W(high)/X(q)  e(spline) 
   0      8    11.287    19.460    0.40E-03    0.73E-03    0.16E-06
   0      8    11.287    12.209    0.38E-03    0.70E-03    0.15E-06
   1      7    11.287     4.655    0.22E-03    0.25E-04    0.22E-06
 Optimization of the real space projectors (new method)

 maximal supplied QI-value         = 24.76
 optimisation between [QCUT,QGAM] = [ 11.39, 22.77] = [ 36.31,145.25] Ry 
 Optimized for a Real-space Cutoff    1.00 Angstroem

   l    n(q)    QCUT    max X(q) W(low)/X(q) W(high)/X(q)  e(spline) 
   0      7    11.387    20.381    0.39E-03    0.13E-02    0.15E-06
   0      7    11.387    15.268    0.42E-03    0.14E-02    0.17E-06
   1      6    11.387     5.964    0.41E-03    0.11E-02    0.17E-06
   1      6    11.387     5.382    0.39E-03    0.87E-03    0.15E-06
 Optimization of the real space projectors (new method)

 maximal supplied QI-value         = 19.84
 optimisation between [QCUT,QGAM] = [ 11.31, 22.82] = [ 35.82,145.81] Ry 
 Optimized for a Real-space Cutoff    1.16 Angstroem

   l    n(q)    QCUT    max X(q) W(low)/X(q) W(high)/X(q)  e(spline) 
   0      8    11.310   159.560    0.27E-03    0.30E-03    0.39E-07
   0      8    11.310   115.863    0.27E-03    0.30E-03    0.38E-07
   1      7    11.310    88.339    0.28E-03    0.28E-03    0.77E-07
   1      7    11.310    48.592    0.27E-03    0.27E-03    0.74E-07
 Optimization of the real space projectors (new method)

 maximal supplied QI-value         = 13.61
 optimisation between [QCUT,QGAM] = [ 11.43, 22.86] = [ 36.58,146.31] Ry 
 Optimized for a Real-space Cutoff    1.56 Angstroem

   l    n(q)    QCUT    max X(q) W(low)/X(q) W(high)/X(q)  e(spline) 
   2     10    11.429   130.855    0.22E-03    0.64E-03    0.11E-05
   2     10    11.429   114.007    0.22E-03    0.64E-03    0.11E-05
   0     11    11.429    84.709    0.39E-04    0.67E-04    0.23E-06
   0     11    11.429    49.163    0.35E-04    0.62E-04    0.21E-06
   1     10    11.429    15.765    0.84E-04    0.15E-03    0.24E-06
   1     10    11.429    10.638    0.58E-04    0.12E-03    0.19E-06

 ----------------------------------------------------------------------------- 
|                                                                             |
|  ADVICE TO THIS USER RUNNING 'VASP/VAMP'   (HEAR YOUR MASTER'S VOICE ...):  |
|                                                                             |
|      You enforced a specific xc-type in the INCAR file,                     |
|      a different type was found on the POTCAR file                          |
|          I HOPE YOU KNOW, WHAT YOU ARE  DOING                               |
|                                                                             |
 ----------------------------------------------------------------------------- 

  PAW_PBE C 08Apr2002                   :
 energy of atom  1       EATOM= -147.1560
 kinetic energy error for atom=    0.0076 (will be added to EATOM!!)
  PAW_PBE H 15Jun2001                   :
 energy of atom  2       EATOM=  -12.4884
 kinetic energy error for atom=    0.0020 (will be added to EATOM!!)
  PAW_PBE O 08Apr2002                   :
 energy of atom  3       EATOM= -432.3788
 kinetic energy error for atom=    0.0224 (will be added to EATOM!!)
  PAW_PBE Si 05Jan2001                  :
 energy of atom  4       EATOM= -103.0669
 kinetic energy error for atom=    0.0006 (will be added to EATOM!!)
  PAW_PBE W 08Apr2002                   :
 energy of atom  5       EATOM= -204.6103
 kinetic energy error for atom=    0.0017 (will be added to EATOM!!)
 
 
 POSCAR:  C  H  O Si  W                          
  positions in direct lattice
  velocities in cartesian coordinates
 exchange correlation table for  LEXCH =        9
   RHO(1)=    0.500       N(1)  =     2000
   RHO(2)=  100.500       N(2)  =     4000
 


--------------------------------------------------------------------------------------------------------


 ion  position               nearest neighbor table
   1  0.568  0.549  0.770-  48 1.10  47 1.10  50 1.10   2 1.52
   2  0.535  0.481  0.753-  49 1.10 204 1.42   1 1.52 271 2.09
   3  0.761  0.104  0.651- 125 0.97
   4  0.926  0.279  0.356-  73 0.98
   5  0.793  0.207  0.373- 108 0.97
   6  0.975  0.944  0.325- 117 0.97
   7  0.626  0.963  0.375- 119 0.98
   8  0.821  0.995  0.369- 137 0.97
   9  0.750  0.141  0.458- 175 0.98
  10  0.915  0.249  0.509- 180 0.97
  11  0.583  0.304  0.306- 185 0.97
  12  0.891  0.335  0.617-  91 0.98
  13  0.590  0.359  0.616- 136 0.97
  14  0.593  0.869  0.578- 178 0.99
  15  0.034  0.338  0.652- 184 0.97
  16  0.935  0.420  0.454- 173 0.98
  17  0.746  0.530  0.422-  87 1.00
  18  0.796  0.381  0.634- 165 0.97
  19  0.591  0.569  0.378-  99 0.99
  20  0.718  0.646  0.383- 122 0.99
  21  0.841  0.542  0.420- 128 0.98
  22  0.005  0.604  0.358- 133 0.97
  23  0.828  0.712  0.468- 174 0.99
  24  0.878  0.599  0.721-  53 0.97
  25  0.520  0.986  0.422- 135 0.99
  26  0.223  0.980  0.393- 176 1.00
  27  0.216  0.238  0.319- 191 0.99
  28  0.158  0.330  0.279- 182 0.97
  29  0.342  0.156  0.331- 183 0.98
  30  0.223  0.046  0.323- 190 0.97
  31  0.511  0.825  0.546- 193 0.97
  32  0.382  0.243  0.648-  78 0.97
  33  0.244  0.093  0.598- 129 0.98
  34  0.315  0.487  0.442-  52 0.99
  35  0.409  0.439  0.406- 141 0.98
  36  0.398  0.793  0.389- 179 0.97
  37  0.244  0.655  0.294- 187 0.97
  38  0.312  0.418  0.369- 188 0.98
  39  0.405  0.584  0.339- 189 0.97
  40  0.139  0.488  0.352- 181 0.98
  41  0.593  0.698  0.352-  82 0.97
  42  0.469  0.861  0.444- 192 0.99
  43  0.122  0.323  0.612- 101 0.97
  44  0.071  0.666  0.645- 132 0.97
  45  0.244  0.384  0.682- 177 0.97
  46  0.244  0.815  0.669- 186 0.97
  47  0.582  0.583  0.738-   1 1.10
  48  0.541  0.583  0.794-   1 1.10
  49  0.520  0.445  0.783-   2 1.10
  50  0.606  0.532  0.791-   1 1.10
  51  0.369  0.648  0.439- 225 1.66 260 1.68
  52  0.347  0.504  0.420-  34 0.99 260 1.67
  53  0.861  0.566  0.697-  24 0.97 231 1.64
  54  0.349  0.957  0.531- 236 1.68 269 1.69
  55  0.033  0.932  0.529- 251 1.63 262 1.65
  56  0.636  0.079  0.489- 229 1.60 218 1.65
  57  0.069  0.052  0.395- 217 1.64 209 1.65
  58  0.452  0.130  0.421- 234 1.65 215 1.65
  59  0.806  0.214  0.483- 233 1.67 230 1.69
  60  0.973  0.182  0.599- 211 1.63 241 1.65
  61  0.275  0.299  0.449- 257 1.65 267 1.66
  62  0.556  0.775  0.442- 238 1.51 265 1.66
  63  0.393  0.970  0.620- 255 1.65 269 1.66
  64  0.178  0.350  0.405- 257 1.66 232 1.67
  65  0.867  0.684  0.637- 235 1.64 231 1.65
  66  0.866  0.967  0.467- 227 1.60 242 1.65
  67  0.301  0.761  0.458- 225 1.65 239 1.67
  68  0.422  0.261  0.380- 234 1.67 254 1.67
  69  0.811  0.465  0.520- 261 1.63 208 1.64
  70  0.983  0.073  0.521- 251 1.68 211 1.69
  71  0.518  0.458  0.624- 270 1.66 271 1.97
  72  0.035  0.920  0.429- 262 1.64 209 1.65
  73  0.963  0.303  0.351-   4 0.98 210 1.65
  74  0.070  0.336  0.376- 210 1.64 232 1.65
  75  0.208  0.729  0.395- 239 1.66 249 1.67
  76  0.039  0.419  0.499- 264 1.64 237 1.65
  77  0.240  0.286  0.588- 245 1.63 222 1.63
  78  0.398  0.194  0.644-  32 0.97 216 1.64
  79  0.456  0.560  0.582- 247 1.67 270 1.68
  80  0.910  0.749  0.557- 235 1.64 214 1.65
  81  0.869  0.108  0.442- 242 1.64 230 1.65
  82  0.573  0.667  0.376-  41 0.97 238 1.68
  83  0.142  0.159  0.376- 263 1.65 217 1.65
  84  0.350  0.766  0.607- 207 1.62 248 1.64
  85  0.911  0.845  0.483- 227 1.62 214 1.66
  86  0.061  0.537  0.442- 264 1.66 206 1.67
  87  0.708  0.555  0.420-  17 1.00 220 1.67
  88  0.075  0.817  0.483- 262 1.50 244 1.65
  89  0.700  0.828  0.433- 219 1.53 252 1.65
  90  0.730  0.049  0.543- 218 1.64 253 1.64
  91  0.919  0.302  0.632-  12 0.98 241 1.63
  92  0.735  0.853  0.613- 226 1.66 223 1.68
  93  0.625  0.527  0.486- 228 1.58 220 1.68
  94  0.557  0.630  0.467- 238 1.52 228 1.62
  95  0.426  0.245  0.555- 259 1.68 216 1.68
  96  0.978  0.728  0.477- 244 1.65 214 1.65
  97  0.654  0.594  0.633- 266 1.65 212 1.66
  98  0.397  0.745  0.516- 207 1.66 225 1.67
  99  0.603  0.518  0.386-  19 0.99 220 1.65
 100  0.720  0.631  0.557- 250 1.63 266 1.65
 101  0.147  0.364  0.620-  43 0.97 222 1.64
 102  0.066  0.549  0.542- 264 1.63 268 1.64
 103  0.819  0.885  0.537- 227 1.65 226 1.67
 104  0.828  0.355  0.452- 233 1.65 208 1.65
 105  0.527  0.299  0.533- 259 1.61 240 1.63
 106  0.737  0.499  0.595- 266 1.65 261 1.66
 107  0.557  0.172  0.395- 246 1.59 215 1.64
 108  0.806  0.256  0.383-   5 0.97 233 1.67
 109  0.237  0.953  0.508- 236 1.58 221 1.67
 110  0.693  0.776  0.541- 250 1.64 223 1.64
 111  0.924  0.950  0.553- 251 1.65 227 1.65
 112  0.526  0.318  0.399- 246 1.45 254 1.66
 113  0.469  0.989  0.546- 255 1.69 256 1.70
 114  0.838  0.095  0.540- 230 1.66 253 1.66
 115  0.538  0.116  0.486- 229 1.61 215 1.67
 116  0.350  0.187  0.440- 267 1.63 234 1.65
 117  0.012  0.962  0.335-   6 0.97 209 1.65
 118  0.459  0.582  0.676- 247 1.68 271 1.93
 119  0.655  0.925  0.379-   7 0.98 219 1.66
 120  0.076  0.686  0.436- 206 1.65 244 1.66
 121  0.451  0.403  0.552- 270 1.67 259 1.70
 122  0.719  0.700  0.380-  20 0.99 252 1.65
 123  0.448  0.701  0.603- 247 1.63 207 1.64
 124  0.753  0.709  0.476- 250 1.63 252 1.69
 125  0.779  0.121  0.621-   3 0.97 253 1.64
 126  0.993  0.308  0.448- 237 1.66 210 1.68
 127  0.532  0.506  0.527- 270 1.63 228 1.65
 128  0.817  0.499  0.423-  21 0.98 208 1.69
 129  0.236  0.145  0.605-  33 0.98 245 1.62
 130  0.204  0.831  0.471- 221 1.50 239 1.63
 131  0.240  0.559  0.523- 224 1.65 213 1.66
 132  0.061  0.625  0.624-  44 0.97 268 1.63
 133  0.046  0.602  0.354-  22 0.97 206 1.65
 134  0.801  0.979  0.606- 226 1.66 253 1.69
 135  0.538  0.028  0.405-  25 0.99 215 1.66
 136  0.607  0.313  0.605-  13 0.97 240 1.63
 137  0.862  0.004  0.369-   8 0.97 242 1.66
 138  0.095  0.149  0.467- 243 1.62 217 1.65
 139  0.171  0.204  0.531- 243 1.61 245 1.63
 140  0.641  0.704  0.455- 238 1.65 252 1.66
 141  0.437  0.410  0.386-  35 0.98 254 1.66
 142  0.575  0.058  0.571- 256 1.62 229 1.65
 143  0.151  0.593  0.389- 249 1.68 206 1.68
 144  0.268  0.602  0.392- 260 1.65 249 1.67
 145  0.440  0.322  0.470- 259 1.64 254 1.69
 146  0.238  0.159  0.430- 263 1.65 267 1.67
 147  0.073  0.150  0.563- 243 1.64 211 1.64
 148  0.845  0.544  0.600- 231 1.66 261 1.66
 149  0.621  0.280  0.411- 258 1.65 246 1.66
 150  0.603  0.892  0.467- 265 1.29 219 1.67
 151  0.031  0.195  0.389- 210 1.66 217 1.66
 152  0.608  0.195  0.547- 229 1.62 240 1.64
 153  0.133  0.938  0.479- 262 1.65 221 1.66
 154  0.080  0.280  0.512- 237 1.64 243 1.65
 155  0.373  0.103  0.569- 269 1.63 216 1.69
 156  0.067  0.697  0.536- 244 1.63 268 1.63
 157  0.666  0.415  0.430- 220 1.65 258 1.65
 158  0.799  0.729  0.564- 250 1.61 235 1.63
 159  0.704  0.957  0.470- 218 1.65 219 1.66
 160  0.596  0.631  0.554- 228 1.63 212 1.63
 161  0.723  0.294  0.452- 233 1.63 258 1.64
 162  0.978  0.314  0.547- 237 1.64 241 1.67
 163  0.158  0.630  0.571- 224 1.63 268 1.65
 164  0.633  0.327  0.508- 240 1.63 258 1.65
 165  0.820  0.396  0.606-  18 0.97 261 1.65
 166  0.959  0.027  0.417- 242 1.64 209 1.65
 167  0.282  0.195  0.519- 267 1.63 245 1.65
 168  0.249  0.443  0.461- 213 1.66 257 1.71
 169  0.271  0.849  0.569- 236 1.64 248 1.65
 170  0.204  0.686  0.487- 224 1.63 239 1.66
 171  0.147  0.476  0.493- 213 1.63 264 1.65
 172  0.224  0.423  0.557- 213 1.61 222 1.64
 173  0.911  0.453  0.474-  16 0.98 208 1.65
 174  0.870  0.705  0.464-  23 0.99 214 1.65
 175  0.738  0.093  0.445-   9 0.98 218 1.66
 176  0.222  0.930  0.408-  26 1.00 221 1.64
 177  0.252  0.403  0.649-  45 0.97 222 1.65
 178  0.630  0.882  0.594-  14 0.99 223 1.62
 179  0.410  0.789  0.423-  36 0.97 225 1.68
 180  0.918  0.196  0.508-  10 0.97 230 1.65
 181  0.133  0.444  0.332-  40 0.98 232 1.65
 182  0.155  0.304  0.311-  28 0.97 232 1.69
 183  0.373  0.131  0.348-  29 0.98 234 1.66
 184  0.035  0.292  0.633-  15 0.97 241 1.66
 185  0.573  0.257  0.320-  11 0.97 246 1.66
 186  0.244  0.770  0.650-  46 0.97 248 1.64
 187  0.207  0.648  0.310-  37 0.97 249 1.65
 188  0.275  0.392  0.367-  38 0.98 257 1.66
 189  0.365  0.598  0.342-  39 0.97 260 1.67
 190  0.226  0.056  0.358-  30 0.97 263 1.69
 191  0.241  0.196  0.329-  27 0.99 263 1.66
 192  0.501  0.892  0.455-  42 0.99 265 1.60
 193  0.550  0.827  0.534-  31 0.97 265 1.67
 194  0.545  0.647  0.636- 212 1.66 247 1.67
 195  0.479  0.120  0.596- 256 1.65 216 1.65
 196  0.263  0.694  0.569- 248 1.65 224 1.65
 197  0.444  0.845  0.582- 255 1.66 207 1.69
 198  0.766  0.617  0.649- 266 1.65 231 1.66
 199  0.845  0.832  0.623- 235 1.66 226 1.68
 200  0.640  0.738  0.621- 212 1.67 223 1.71
 201  0.008  0.033  0.603- 251 1.69 211 1.69
 202  0.285  0.001  0.594- 269 1.69 236 1.70
 203  0.504  0.970  0.628- 255 1.69 256 1.70
 204  0.557  0.441  0.712-   2 1.42 271 1.96
 205  0.430  0.423  0.703- 271 1.72
 206  0.083  0.606  0.406- 133 1.65 120 1.65  86 1.67 143 1.68 264 3.13
 207  0.409  0.764  0.575-  84 1.62 123 1.64  98 1.66 197 1.69 248 3.06
 208  0.842  0.441  0.468-  69 1.64 104 1.65 173 1.65 128 1.69
 209  0.017  0.990  0.394-  57 1.65 166 1.65  72 1.65 117 1.65 262 3.11 217 3.13
 210  0.015  0.284  0.391-  74 1.64  73 1.65 151 1.66 126 1.68 237 3.11 217 3.11
 211  0.009  0.115  0.573-  60 1.63 147 1.64  70 1.69 201 1.69 251 2.39 243 3.05 241 3.07
 212  0.609  0.656  0.611- 160 1.63 194 1.66  97 1.66 200 1.67 266 2.87
 213  0.214  0.476  0.510- 172 1.61 171 1.63 131 1.66 168 1.66 224 3.10 257 3.14
 214  0.915  0.756  0.496-  96 1.65 174 1.65  80 1.65  85 1.66 227 2.99 235 3.03
 215  0.521  0.110  0.426- 107 1.64  58 1.65 135 1.66 115 1.67 246 3.08 229 3.12
 216  0.419  0.168  0.589-  78 1.64 195 1.65  95 1.68 155 1.69 269 3.14 256 3.14
 217  0.083  0.139  0.407-  57 1.64 138 1.65  83 1.65 151 1.66 210 3.11 209 3.13 263 3.14
 218  0.702  0.045  0.487-  90 1.64 159 1.65  56 1.65 175 1.66 229 3.09 219 3.10 253 3.15
 219  0.665  0.898  0.437-  89 1.53 159 1.66 119 1.66 150 1.67 265 2.83 252 3.06 218 3.10
 220  0.650  0.504  0.430-  99 1.65 157 1.65  87 1.67  93 1.68 228 3.06
 221  0.198  0.912  0.464- 130 1.50 176 1.64 153 1.66 109 1.67 239 3.01 236 3.06 262 3.07
 222  0.214  0.366  0.604-  77 1.63 172 1.64 101 1.64 177 1.65
 223  0.673  0.813  0.595- 178 1.62 110 1.64  92 1.68 200 1.71 250 2.90
 224  0.217  0.641  0.538- 163 1.63 170 1.63 196 1.65 131 1.65 239 3.09 213 3.10 268 3.12
 225  0.369  0.735  0.459-  67 1.65  51 1.66  98 1.67 179 1.68
 226  0.797  0.888  0.596- 134 1.66  92 1.66 103 1.67 199 1.68 235 2.86 227 3.00 253 3.15
 227  0.880  0.912  0.512-  66 1.60  85 1.62 103 1.65 111 1.65 214 2.99 226 3.00 251 3.05 242 3.13

 228  0.576  0.574  0.511-  93 1.58  94 1.62 160 1.63 127 1.65 238 3.00 220 3.06 270 3.13
 229  0.590  0.115  0.525-  56 1.60 115 1.61 152 1.62 142 1.65 256 2.85 218 3.09 240 3.12 215 3.12

 230  0.858  0.152  0.495- 180 1.65  81 1.65 114 1.66  59 1.69 242 3.07 233 3.15
 231  0.836  0.603  0.646-  53 1.64  65 1.65 148 1.66 198 1.66 266 2.93 235 3.01 261 3.01
 232  0.134  0.360  0.357- 181 1.65  74 1.65  64 1.67 182 1.69 257 3.11
 233  0.791  0.280  0.442- 161 1.63 104 1.65 108 1.67  59 1.67 230 3.15
 234  0.399  0.177  0.396-  58 1.65 116 1.65 183 1.66  68 1.67 254 3.07
 235  0.856  0.750  0.596- 158 1.63  80 1.64  65 1.64 199 1.66 226 2.86 231 3.01 214 3.03
 236  0.283  0.934  0.550- 109 1.58 169 1.64  54 1.68 202 1.70 269 2.38 221 3.06
 237  0.023  0.330  0.502- 154 1.64 162 1.64  76 1.65 126 1.66 241 3.11 210 3.11 243 3.13
 238  0.575  0.695  0.436-  62 1.51  94 1.52 140 1.65  82 1.68 228 3.00 265 3.06 252 3.10
 239  0.230  0.753  0.452- 130 1.63 170 1.66  75 1.66  67 1.67 249 2.97 221 3.01 224 3.09
 240  0.594  0.284  0.548- 164 1.63 105 1.63 136 1.63 152 1.64 229 3.12
 241  0.975  0.272  0.603-  91 1.63  60 1.65 184 1.66 162 1.67 211 3.07 237 3.11
 242  0.889  0.025  0.424-  81 1.64 166 1.64  66 1.65 137 1.66 230 3.07 227 3.13
 243  0.105  0.195  0.518- 139 1.61 138 1.62 147 1.64 154 1.65 211 3.05 237 3.13
 244  0.048  0.733  0.483- 156 1.63  96 1.65  88 1.65 120 1.66 262 3.05 268 3.15
 245  0.232  0.206  0.561- 129 1.62  77 1.63 139 1.63 167 1.65 267 3.03
 246  0.561  0.258  0.381- 112 1.45 107 1.59 149 1.66 185 1.66 254 2.87 215 3.08
 247  0.477  0.624  0.622- 123 1.63 194 1.67  79 1.67 118 1.68 270 3.00 271 3.13
 248  0.281  0.770  0.598- 186 1.64  84 1.64 196 1.65 169 1.65 207 3.06
 249  0.209  0.643  0.372- 187 1.65 144 1.67  75 1.67 143 1.68 239 2.97
 250  0.740  0.710  0.536- 158 1.61 100 1.63 124 1.63 110 1.64 223 2.90 252 2.91 266 3.07
 251  0.987  0.991  0.550-  55 1.63 111 1.65  70 1.68 201 1.69 211 2.39 227 3.05
 252  0.703  0.737  0.434-  89 1.65 122 1.65 140 1.66 124 1.69 250 2.91 219 3.06 238 3.10
 253  0.788  0.059  0.577-  90 1.64 125 1.64 114 1.66 134 1.69 218 3.15 226 3.15
 254  0.456  0.328  0.409- 141 1.66 112 1.66  68 1.67 145 1.69 246 2.87 234 3.07
 255  0.450  0.934  0.594-  63 1.65 197 1.66 113 1.69 203 1.69 256 2.37 269 2.75
 256  0.509  0.039  0.586- 142 1.62 195 1.65 113 1.70 203 1.70 255 2.37 229 2.85 216 3.14
 257  0.244  0.370  0.421-  61 1.65  64 1.66 188 1.66 168 1.71 232 3.11 213 3.14
 258  0.659  0.330  0.450- 161 1.64 149 1.65 157 1.65 164 1.65
 259  0.460  0.317  0.529- 105 1.61 145 1.64  95 1.68 121 1.70
 260  0.337  0.590  0.399- 144 1.65 189 1.67  52 1.67  51 1.68
 261  0.803  0.476  0.580-  69 1.63 165 1.65 148 1.66 106 1.66 266 2.90 231 3.01
 262  0.069  0.899  0.481-  88 1.50  72 1.64 153 1.65  55 1.65 244 3.05 221 3.07 209 3.11
 263  0.212  0.144  0.374-  83 1.65 146 1.65 191 1.66 190 1.69 267 3.12 217 3.14
 264  0.078  0.494  0.495- 102 1.63  76 1.64 171 1.65  86 1.66 268 3.10 206 3.13
 265  0.558  0.852  0.475- 150 1.29 192 1.60  62 1.66 193 1.67 219 2.83 238 3.06
 266  0.718  0.584  0.610-  97 1.65 198 1.65 100 1.65 106 1.65 212 2.87 261 2.90 231 2.93 250 3.07

 267  0.287  0.210  0.459- 167 1.63 116 1.63  61 1.66 146 1.67 245 3.03 263 3.12
 268  0.088  0.626  0.568- 156 1.63 132 1.63 102 1.64 163 1.65 264 3.10 224 3.12 244 3.15
 269  0.354  0.017  0.579- 155 1.63  63 1.66 202 1.69  54 1.69 236 2.38 255 2.75 216 3.14
 270  0.487  0.479  0.570- 127 1.63  71 1.66 121 1.67  79 1.68 247 3.00 228 3.13 271 3.20
 271  0.485  0.483  0.689- 205 1.72 118 1.93 204 1.96  71 1.97   2 2.09 247 3.13 270 3.20
 
  LATTYP: Found a simple orthorhombic cell.
 ALAT       =    18.1212369514
 B/A-ratio  =     1.2919258579
 C/A-ratio  =     1.4835282260
  
  Lattice vectors:
  
 A1 = (   0.0000000000, -18.1212369514,   0.0000000000)
 A2 = ( -23.4112945954,   0.0000000000,   0.0000000000)
 A3 = (   0.0000000000,   0.0000000000, -26.8833665073)


Analysis of symmetry for initial positions (statically):
=====================================================================
 Subroutine PRICEL returns:
 Original cell was already a primitive cell.
 

 Routine SETGRP: Setting up the symmetry group for a 
 simple orthorhombic supercell.


 Subroutine GETGRP returns: Found  1 space group operations
 (whereof  1 operations were pure point group operations)
 out of a pool of  8 trial point group operations.


The static configuration has the point symmetry C_1 .


Analysis of symmetry for dynamics (positions and initial velocities):
=====================================================================
 Subroutine PRICEL returns:
 Original cell was already a primitive cell.
 

 Routine SETGRP: Setting up the symmetry group for a 
 simple orthorhombic supercell.


 Subroutine GETGRP returns: Found  1 space group operations
 (whereof  1 operations were pure point group operations)
 out of a pool of  8 trial point group operations.


The dynamic configuration has the point symmetry C_1 .


Analysis of constrained symmetry for selective dynamics:
=====================================================================
 Subroutine PRICEL returns:
 Original cell was already a primitive cell.
 

 Routine SETGRP: Setting up the symmetry group for a 
 simple orthorhombic supercell.


 Subroutine GETGRP returns: Found  1 space group operations
 (whereof  1 operations were pure point group operations)
 out of a pool of  8 trial point group operations.


The constrained configuration has the point symmetry C_1 .


 Subroutine INISYM returns: Found  1 space group operations
 (whereof  1 operations are pure point group operations),
 and found     1 'primitive' translations

 
 
 KPOINTS: KPOINTS created by Atomic Simulation Env

Automatic generation of k-mesh.
Space group operators:
 irot       det(A)        alpha          n_x          n_y          n_z        tau_x        tau_y        tau_z
    1     1.000000     0.000000     1.000000     0.000000     0.000000     0.000000     0.000000     0.000000
 
 Subroutine IBZKPT returns following result:
 ===========================================
 
 Found      5 irreducible k-points:
 
 Following reciprocal coordinates:
            Coordinates               Weight
  0.000000  0.000000  0.000000      1.000000
  0.333333  0.000000  0.000000      2.000000
  0.000000  0.333333  0.000000      2.000000
  0.333333  0.333333  0.000000      2.000000
 -0.333333  0.333333  0.000000      2.000000
 
 Following cartesian coordinates:
            Coordinates               Weight
  0.000000  0.000000  0.000000      1.000000
  0.014238  0.000000  0.000000      2.000000
  0.000000  0.018395  0.000000      2.000000
  0.014238  0.018395  0.000000      2.000000
 -0.014238  0.018395  0.000000      2.000000
 


--------------------------------------------------------------------------------------------------------




 Dimension of arrays:
   k-points           NKPTS =      5   k-points in BZ     NKDIM =      5   number of bands    NBANDS=    768
   number of dos      NEDOS =    301   number of ions     NIONS =    271
   non local maximal  LDIM  =      6   non local SUM 2l+1 LMDIM =     18
   total plane-waves  NPLWV = ******
   max r-space proj   IRMAX =   2748   max aug-charges    IRDMAX=   9808
   dimension x,y,z NGX =   128 NGY =  100 NGZ =  150
   dimension x,y,z NGXF=   256 NGYF=  200 NGZF=  300
   support grid    NGXF=   256 NGYF=  200 NGZF=  300
   ions per type =               2  48 155  65   1
   NGX,Y,Z   is equivalent  to a cutoff of   9.09,  9.17,  9.28 a.u.
   NGXF,Y,Z  is equivalent  to a cutoff of  18.18, 18.35, 18.55 a.u.

 SYSTEM =  unknown system                          
 POSCAR =   C  H  O Si  W                          

 Startparameter for this run:
   NWRITE =      2    write-flag & timer
   PREC   = normal    normal or accurate (medium, high low for compatibility)
   ISTART =      0    job   : 0-new  1-cont  2-samecut
   ICHARG =      2    charge: 1-file 2-atom 10-const
   ISPIN  =      1    spin polarized calculation?
   LNONCOLLINEAR =      F non collinear calculations
   LSORBIT =      F    spin-orbit coupling
   INIWAV =      1    electr: 0-lowe 1-rand  2-diag
   LASPH  =      T    aspherical Exc in radial PAW
   METAGGA=      F    non-selfconsistent MetaGGA calc.

 Electronic Relaxation 1
   ENCUT  =  500.0 eV  36.75 Ry    6.06 a.u.  42.68 33.04 49.01*2*pi/ulx,y,z
   ENINI  =  500.0     initial cutoff
   ENAUG  =  644.9 eV  augmentation charge cutoff
   NELM   =     60;   NELMIN=  2; NELMDL= -5     # of ELM steps 
   EDIFF  = 0.1E-03   stopping-criterion for ELM
   LREAL  =      T    real-space projection
   NLSPLINE    = F    spline interpolate recip. space projectors
   LCOMPAT=      F    compatible to vasp.4.4
   GGA_COMPAT  = T    GGA compatible to vasp.4.4-vasp.4.6
   LMAXPAW     = -100 max onsite density
   LMAXMIX     =    2 max onsite mixed and CHGCAR
   VOSKOWN=      0    Vosko Wilk Nusair interpolation
   ROPT   =   -0.00050  -0.00050  -0.00050  -0.00050
   ROPT   =   -0.00050
 Ionic relaxation
   EDIFFG = -.5E-01   stopping-criterion for IOM
   NSW    =    400    number of steps for IOM
   NBLOCK =      1;   KBLOCK =    400    inner block; outer block 
   IBRION =      2    ionic relax: 0-MD 1-quasi-New 2-CG
   NFREE  =      1    steps in history (QN), initial steepest desc. (CG)
   ISIF   =      0    stress and relaxation
   IWAVPR =     11    prediction:  0-non 1-charg 2-wave 3-comb
   ISYM   =      2    0-nonsym 1-usesym 2-fastsym
   LCORR  =      T    Harris-Foulkes like correction to forces

   POTIM  = 0.5000    time-step for ionic-motion
   TEIN   =    0.0    initial temperature
   TEBEG  =    0.0;   TEEND  =   0.0 temperature during run
   SMASS  =  -3.00    Nose mass-parameter (am)
   estimated Nose-frequenzy (Omega)   =  0.10E-29 period in steps =****** mass=  -0.125E-25a.u.
   SCALEE = 1.0000    scale energy and forces
   NPACO  =    256;   APACO  = 16.0  distance and # of slots for P.C.
   PSTRESS=    0.0 pullay stress

  Mass of Ions in am
   POMASS =  12.01  1.00 16.00 28.09183.85
  Ionic Valenz
   ZVAL   =   4.00  1.00  6.00  4.00  6.00
  Atomic Wigner-Seitz radii
   RWIGS  =  -1.00 -1.00 -1.00 -1.00 -1.00
  virtual crystal weights 
   VCA    =   1.00  1.00  1.00  1.00  1.00
   NELECT =    1252.0000    total number of electrons
   NUPDOWN=      -1.0000    fix difference up-down

 DOS related values:
   EMIN   =  10.00;   EMAX   =-10.00  energy-range for DOS
   EFERMI =   0.00
   ISMEAR =     0;   SIGMA  =   0.20  broadening in eV -4-tet -1-fermi 0-gaus

 Electronic relaxation 2 (details)
   IALGO  =     68    algorithm
   LDIAG  =      T    sub-space diagonalisation (order eigenvalues)
   LSUBROT=      F    optimize rotation matrix (better conditioning)
   TURBO    =      0    0=normal 1=particle mesh
   IRESTART =      0    0=no restart 2=restart with 2 vectors
   NREBOOT  =      0    no. of reboots
   NMIN     =      0    reboot dimension
   EREF     =   0.00    reference energy to select bands
   IMIX   =      4    mixing-type and parameters
     AMIX     =   0.40;   BMIX     =  1.00
     AMIX_MAG =   1.60;   BMIX_MAG =  1.00
     AMIN     =   0.10
     WC   =   100.;   INIMIX=   1;  MIXPRE=   1;  MAXMIX= -45

 Intra band minimization:
   WEIMIN = 0.0010     energy-eigenvalue tresh-hold
   EBREAK =  0.33E-07  absolut break condition
   DEPER  =   0.30     relativ break condition  

   TIME   =   0.40     timestep for ELM

  volume/ion in A,a.u.               =      42.09       284.00
  Fermi-wavevector in a.u.,A,eV,Ry     =   0.783870  1.481299  8.360126  0.614452
  Thomas-Fermi vector in A             =   1.887886
 
 Write flags
   LWAVE        =      T    write WAVECAR
   LDOWNSAMPLE  =      F    k-point downsampling of WAVECAR
   LCHARG       =      T    write CHGCAR
   LVTOT        =      F    write LOCPOT, total local potential
   LVHAR        =      F    write LOCPOT, Hartree potential only
   LELF         =      F    write electronic localiz. function (ELF)
   LORBIT       =      0    0 simple, 1 ext, 2 COOP (PROOUT), +10 PAW based schemes


 Dipole corrections
   LMONO  =      F    monopole corrections only (constant potential shift)
   LDIPOL =      T    correct potential (dipole corrections)
   IDIPOL =      3    1-x, 2-y, 3-z, 4-all directions 
   EPSILON=  1.0000000 bulk dielectric constant

 Exchange correlation treatment:
   GGA     =    RP    GGA type
   LEXCH   =     9    internal setting for exchange type
   VOSKOWN=      0    Vosko Wilk Nusair interpolation
   LHFCALC =     F    Hartree Fock is set to
   LHFONE  =     F    Hartree Fock one center treatment
   AEXX    =    0.0000 exact exchange contribution

 Linear response parameters
   LEPSILON=     F    determine dielectric tensor
   LRPA    =     F    only Hartree local field effects (RPA)
   LNABLA  =     F    use nabla operator in PAW spheres
   LVEL    =     F    velocity operator in full k-point grid
   LINTERFAST=   F  fast interpolation
   KINTER  =     0    interpolate to denser k-point grid
   CSHIFT  =0.1000    complex shift for real part using Kramers Kronig
   OMEGAMAX=  -1.0    maximum frequency
   DEG_THRESHOLD= 0.2000000E-02 threshold for treating states as degnerate
   RTIME   =   -0.100 relaxation time in fs
  (WPLASMAI=    0.000 imaginary part of plasma frequency in eV, 0.658/RTIME)
   DFIELD  = 0.0000000 0.0000000 0.0000000 field for delta impulse in time
 
 Orbital magnetization related:
   ORBITALMAG=     F  switch on orbital magnetization
   LCHIMAG   =     F  perturbation theory with respect to B field
   DQ        =  0.001000  dq finite difference perturbation B field
   LLRAUG    =     F  two centre corrections for induced B field



--------------------------------------------------------------------------------------------------------


 conjugate gradient relaxation of ions
   using selective dynamics as specified on POSCAR
 charge density and potential will be updated during run
 non-spin polarized calculation
 RMM-DIIS sequential band-by-band and
  variant of blocked Davidson during initial phase
 perform sub-space diagonalisation
    before iterative eigenvector-optimisation
 modified Broyden-mixing scheme, WC =      100.0
 initial mixing is a Kerker type mixing with AMIX =  0.4000 and BMIX =      1.0000
 Hartree-type preconditioning will be used
 using additional bands           142
 real space projection scheme for non local part
 use partial core corrections
 calculate Harris-corrections to forces 
   (improved forces if not selfconsistent)
 use gradient corrections 
 use of overlap-Matrix (Vanderbilt PP)
 Gauss-broadening in eV      SIGMA  =   0.20


--------------------------------------------------------------------------------------------------------


  energy-cutoff  :      500.00
  volume of cell :    11405.04
      direct lattice vectors                 reciprocal lattice vectors
    23.411294595  0.000000000  0.000000000     0.042714426  0.000000000  0.000000000
     0.000000000 18.121236951  0.000000000     0.000000000  0.055183871  0.000000000
     0.000000000  0.000000000 26.883366507     0.000000000  0.000000000  0.037197722

  length of vectors
    23.411294595 18.121236951 26.883366507     0.042714426  0.055183871  0.037197722


 
 k-points in units of 2pi/SCALE and weight: KPOINTS created by Atomic Simulation Env
   0.00000000  0.00000000  0.00000000       0.111
   0.01423814  0.00000000  0.00000000       0.222
   0.00000000  0.01839462  0.00000000       0.222
   0.01423814  0.01839462  0.00000000       0.222
  -0.01423814  0.01839462  0.00000000       0.222
 
 k-points in reciprocal lattice and weights: KPOINTS created by Atomic Simulation Env
   0.00000000  0.00000000  0.00000000       0.111
   0.33333333  0.00000000  0.00000000       0.222
   0.00000000  0.33333333  0.00000000       0.222
   0.33333333  0.33333333  0.00000000       0.222
  -0.33333333  0.33333333  0.00000000       0.222
 
 position of ions in fractional coordinates (direct lattice) 
   0.56799876  0.54884651  0.76978907
   0.53499626  0.48105347  0.75296593
   0.76053793  0.10373663  0.65099326
   0.92642768  0.27866896  0.35633493
   0.79333970  0.20727890  0.37345652
   0.97453911  0.94360860  0.32530279
   0.62573266  0.96347285  0.37523120
   0.82053840  0.99500666  0.36899263
   0.74999307  0.14117876  0.45803819
   0.91535052  0.24944354  0.50947125
   0.58349286  0.30426355  0.30592717
   0.89135545  0.33467198  0.61658793
   0.58956415  0.35859514  0.61633399
   0.59290023  0.86947068  0.57845851
   0.03403233  0.33784433  0.65198682
   0.93527051  0.41951423  0.45410146
   0.74613838  0.53031199  0.42248819
   0.79648050  0.38056261  0.63363199
   0.59110202  0.56868283  0.37803474
   0.71843379  0.64593279  0.38346059
   0.84115291  0.54242660  0.41959617
   0.00476455  0.60379815  0.35777830
   0.82835870  0.71235667  0.46794226
   0.87775907  0.59882986  0.72100090
   0.51999031  0.98556476  0.42170307
   0.22309457  0.98015484  0.39320502
   0.21637369  0.23785146  0.31923033
   0.15750105  0.32980623  0.27898292
   0.34154688  0.15558571  0.33077276
   0.22271586  0.04575893  0.32273843
   0.51103339  0.82493931  0.54642884
   0.38209883  0.24340743  0.64773517
   0.24414624  0.09295904  0.59849433
   0.31538097  0.48713646  0.44243467
   0.40895618  0.43873486  0.40569060
   0.39849950  0.79311361  0.38878680
   0.24420236  0.65543008  0.29432688
   0.31174138  0.41847571  0.36925764
   0.40547429  0.58427965  0.33881989
   0.13935762  0.48797365  0.35192946
   0.59326935  0.69798713  0.35239799
   0.46900683  0.86142747  0.44382838
   0.12192609  0.32278110  0.61164956
   0.07145889  0.66615769  0.64521511
   0.24408440  0.38422687  0.68226829
   0.24435206  0.81514204  0.66885743
   0.58183995  0.58252931  0.73794369
   0.54106844  0.58274291  0.79433486
   0.51966822  0.44495278  0.78311720
   0.60629633  0.53186902  0.79080771
   0.36894173  0.64835510  0.43900002
   0.34681565  0.50403387  0.42038813
   0.86070444  0.56603173  0.69672525
   0.34898980  0.95689510  0.53089022
   0.03341046  0.93248367  0.52850634
   0.63635548  0.07886855  0.48937667
   0.06864615  0.05226542  0.39511073
   0.45189954  0.12956232  0.42059728
   0.80588415  0.21365018  0.48316661
   0.97314731  0.18150656  0.59878076
   0.27476529  0.29917287  0.44851223
   0.55635417  0.77509129  0.44175101
   0.39262191  0.97016194  0.61973277
   0.17751724  0.34996845  0.40527312
   0.86655302  0.68390180  0.63721737
   0.86569601  0.96717693  0.46703846
   0.30104714  0.76093683  0.45792526
   0.42161095  0.26125222  0.37959630
   0.81121431  0.46526017  0.52013764
   0.98349579  0.07277036  0.52122691
   0.51800040  0.45754393  0.62363064
   0.03453641  0.91994776  0.42940526
   0.96303654  0.30319531  0.35125762
   0.06962669  0.33610577  0.37637178
   0.20829566  0.72864429  0.39536010
   0.03890126  0.41910192  0.49910875
   0.23963757  0.28576441  0.58798445
   0.39775381  0.19412804  0.64439263
   0.45574006  0.56033625  0.58177451
   0.90969138  0.74916568  0.55747637
   0.86912727  0.10804334  0.44227833
   0.57257679  0.66733185  0.37613173
   0.14242656  0.15912550  0.37597224
   0.35002009  0.76614814  0.60671851
   0.91099605  0.84504757  0.48317962
   0.06133801  0.53687171  0.44225348
   0.70833903  0.55516655  0.41995768
   0.07548726  0.81680680  0.48299416
   0.70046477  0.82755572  0.43263529
   0.73003232  0.04890116  0.54303972
   0.91892041  0.30163900  0.63225911
   0.73474909  0.85270893  0.61281838
   0.62512195  0.52739400  0.48637871
   0.55657330  0.62970304  0.46724942
   0.42601798  0.24505201  0.55492814
   0.97829009  0.72824363  0.47679564
   0.65414427  0.59358800  0.63346617
   0.39717043  0.74530275  0.51560521
   0.60269007  0.51766545  0.38567099
   0.71953719  0.63069526  0.55697372
   0.14682404  0.36397135  0.61996013
   0.06631451  0.54854414  0.54195344
   0.81883554  0.88456628  0.53662840
   0.82821553  0.35538514  0.45190334
   0.52744949  0.29873475  0.53261750
   0.73694562  0.49858994  0.59534248
   0.55743394  0.17243111  0.39490854
   0.80596408  0.25641257  0.38329286
   0.23744622  0.95325075  0.50791956
   0.69259444  0.77574199  0.54144417
   0.92381672  0.94971085  0.55294552
   0.52573722  0.31778112  0.39855594
   0.46874168  0.98868495  0.54618670
   0.83761010  0.09475159  0.53974183
   0.53790325  0.11641749  0.48623709
   0.35019344  0.18660873  0.43963639
   0.01176032  0.96241390  0.33524376
   0.45879872  0.58202661  0.67564666
   0.65496522  0.92539750  0.37922825
   0.07629334  0.68602626  0.43588102
   0.45111415  0.40334222  0.55233134
   0.71921944  0.70042085  0.37958300
   0.44805890  0.70073885  0.60258011
   0.75255106  0.70932458  0.47629548
   0.77862997  0.12106009  0.62072118
   0.99327462  0.30801347  0.44840298
   0.53171066  0.50649126  0.52746074
   0.81677759  0.49906173  0.42344221
   0.23580673  0.14477126  0.60530425
   0.20353331  0.83070132  0.47053363
   0.23998636  0.55857592  0.52281421
   0.06115479  0.62542797  0.62366624
   0.04607407  0.60234669  0.35417863
   0.80056274  0.97859469  0.60573251
   0.53799091  0.02769749  0.40450275
   0.60660210  0.31252200  0.60509875
   0.86154611  0.00408085  0.36920633
   0.09491131  0.14902284  0.46708233
   0.17147191  0.20402051  0.53092583
   0.64098865  0.70443872  0.45481558
   0.43678778  0.40976848  0.38641325
   0.57470193  0.05786889  0.57097064
   0.15143775  0.59340802  0.38895836
   0.26773979  0.60233753  0.39230630
   0.44025846  0.32219818  0.47032443
   0.23800967  0.15851113  0.42990119
   0.07279142  0.15010404  0.56253250
   0.84512638  0.54378834  0.59976004
   0.62117943  0.27993988  0.41090545
   0.60266699  0.89152667  0.46722346
   0.03138539  0.19528983  0.38899188
   0.60757341  0.19549174  0.54735623
   0.13279973  0.93835464  0.47948708
   0.08025309  0.28037809  0.51163078
   0.37294896  0.10271620  0.56927506
   0.06666135  0.69700638  0.53570867
   0.66648838  0.41538488  0.43001156
   0.79923552  0.72944657  0.56411961
   0.70383856  0.95720843  0.47018456
   0.59611947  0.63132129  0.55398416
   0.72284030  0.29368465  0.45166811
   0.97755874  0.31413240  0.54727953
   0.15836981  0.62991866  0.57056453
   0.63333384  0.32678308  0.50780070
   0.81995102  0.39601879  0.60575546
   0.95857820  0.02724304  0.41695300
   0.28212556  0.19502643  0.51864287
   0.24925755  0.44303289  0.46105570
   0.27132669  0.84937117  0.56865363
   0.20366815  0.68557317  0.48688872
   0.14712345  0.47606988  0.49254493
   0.22446563  0.42254101  0.55674102
   0.91141698  0.45274460  0.47371881
   0.86978818  0.70456011  0.46415352
   0.73812021  0.09283462  0.44522965
   0.22218344  0.92978119  0.40794682
   0.25201931  0.40274531  0.64917477
   0.62982617  0.88195911  0.59399648
   0.41022327  0.78906239  0.42343739
   0.91777135  0.19603829  0.50824515
   0.13254706  0.44353611  0.33227266
   0.15514768  0.30352326  0.31056042
   0.37300515  0.13090704  0.34795342
   0.03461603  0.29185312  0.63346471
   0.57268926  0.25686819  0.32009968
   0.24448422  0.76978747  0.64971264
   0.20737430  0.64840505  0.31036906
   0.27537441  0.39219130  0.36737583
   0.36535081  0.59758663  0.34222079
   0.22638085  0.05618082  0.35811888
   0.24120334  0.19607823  0.32934297
   0.50127293  0.89230162  0.45484168
   0.55007590  0.82713842  0.53421462
   0.54475179  0.64676522  0.63557203
   0.47881229  0.12035975  0.59606709
   0.26279043  0.69373932  0.56854299
   0.44382393  0.84468108  0.58189504
   0.76555133  0.61653651  0.64932072
   0.84457646  0.83158724  0.62297926
   0.63966743  0.73843646  0.62071060
   0.00810323  0.03333395  0.60297260
   0.28497456  0.00087968  0.59401895
   0.50435590  0.96998157  0.62832436
   0.55732300  0.44147027  0.71168388
   0.43024957  0.42294413  0.70282451
   0.08322528  0.60642030  0.40641308
   0.40899345  0.76376274  0.57523674
   0.84176382  0.44145312  0.46783897
   0.01708949  0.99048204  0.39361135
   0.01470021  0.28419027  0.39108141
   0.00925014  0.11500909  0.57250789
   0.60925747  0.65645539  0.61117154
   0.21396912  0.47578193  0.50973234
   0.91506213  0.75556094  0.49625454
   0.52057854  0.11045563  0.42598659
   0.41901150  0.16792150  0.58914671
   0.08345253  0.13917208  0.40698087
   0.70189793  0.04484625  0.48732303
   0.66505935  0.89803746  0.43747644
   0.65009874  0.50402706  0.43015089
   0.19846065  0.91248223  0.46399069
   0.21439310  0.36647692  0.60360659
   0.67342153  0.81281339  0.59467400
   0.21670582  0.64141107  0.53845956
   0.36878912  0.73512773  0.45920930
   0.79722514  0.88835053  0.59559203
   0.87974118  0.91225737  0.51198469
   0.57560140  0.57358125  0.51131400
   0.58988374  0.11547183  0.52523207
   0.85812234  0.15211323  0.49517595
   0.83553419  0.60337860  0.64579455
   0.13373852  0.36031890  0.35687228
   0.79065529  0.27993925  0.44187265
   0.39917610  0.17749484  0.39600320
   0.85589145  0.74995749  0.59649173
   0.28284409  0.93405640  0.54965759
   0.02307473  0.33044751  0.50224551
   0.57455938  0.69549008  0.43556436
   0.23024095  0.75260050  0.45196954
   0.59382352  0.28420198  0.54849300
   0.97517279  0.27228244  0.60266999
   0.88890636  0.02540900  0.42420019
   0.10473573  0.19541598  0.51775642
   0.04814566  0.73303709  0.48263019
   0.23200982  0.20564113  0.56109387
   0.56140781  0.25778527  0.38122611
   0.47743669  0.62438535  0.62244248
   0.28083505  0.77019094  0.59766095
   0.20850083  0.64339984  0.37179454
   0.74032372  0.71036538  0.53583971
   0.98651418  0.99063487  0.55033583
   0.70310456  0.73681815  0.43426040
   0.78780776  0.05941189  0.57675543
   0.45631390  0.32845159  0.40928789
   0.45046103  0.93401977  0.59442515
   0.50915556  0.03948351  0.58589232
   0.24424715  0.37040632  0.42094710
   0.65852534  0.33000211  0.45034791
   0.46005289  0.31685627  0.52877699
   0.33729937  0.58994254  0.39908301
   0.80341557  0.47599739  0.57981401
   0.06920979  0.89885916  0.48050551
   0.21190758  0.14445432  0.37359659
   0.07823286  0.49398500  0.49468762
   0.55757019  0.85234010  0.47473025
   0.71841820  0.58405876  0.60951580
   0.28664212  0.21010174  0.45911077
   0.08816653  0.62553234  0.56760378
   0.35400656  0.01716398  0.57881781
   0.48688616  0.47850040  0.56994165
   0.48487323  0.48306021  0.68876609
 
 position of ions in cartesian coordinates  (Angst):
  13.29758640  9.94577758 20.69452165
  12.52495495  8.71728396 20.24225909
  17.80517751  1.87983607 17.50089039
  21.68887124  5.04982631  9.57948250
  18.57310935  3.75615001 10.03976840
  22.81522226 17.09935504  8.74523415
  14.64921175 17.45931981 10.08747787
  19.20986618 18.03075152  9.91976410
  17.55830880  2.55833369 12.31360861
  21.42954068  4.52022547 13.69630228
  13.66032332  5.51363182  8.22435231
  20.86778503  6.06467018 16.57595930
  13.80245993  6.49818750 16.56913250
  13.88056188 15.75588415 15.55091224
   0.79674101  6.12215725 17.52760070
  21.89589338  7.60211669 12.20777585
  17.46806539  9.60990927 11.35790489
  18.64663971  6.89626529 17.03416110
  13.83846347 10.30523625 10.16284657
  16.81946503 11.70510107 10.30871170
  19.69247867  9.82944088 11.28015755
   0.11154425 10.94156933  9.61828518
  19.39294954 12.90878407 12.57986315
  20.54947626 10.85153774 19.38293135
  12.17364643 17.85965258 11.33679820
   5.22293275 17.76161802 10.57067472
   5.06558822  4.31016263  8.58198589
   3.68730349  5.97649684  7.50000000
   7.99605455  2.81940544  8.89228530
   5.21406665  0.82920834  8.67629559
  11.96395333 14.94892073 14.68984671
   8.94542828  4.41084376 17.41330187
   5.71577964  1.68453273 16.08954253
   7.38347683  8.82751530 11.89413327
   9.57419369  7.95041833 10.90632902
   9.32938927 14.37219961 10.45189795
   5.71709332 11.87720376  7.91249741
   7.29826932  7.58329756  9.92688859
   9.49267817 10.58787005  9.10861924
   3.26254231  8.84268608  9.46104865
  13.88920341 12.64839014  9.47364424
  10.98005707 15.61013129 11.93160111
   2.85444763  5.84919287 16.44319929
   1.67294506 12.07160126 17.34555418
   5.71433184  6.96266616 18.34166848
   5.72059810 14.77138199 17.98113954
  13.62162657 10.55615172 19.83841058
  12.66711270 10.56002236 21.35439522
  12.16610577  8.06309481 21.05282684
  14.19418191  9.63812453 21.25957347
   8.63740362 11.74899635 11.80179838
   8.11940335  9.13371715 11.30144811
  20.15020525 10.25719508 18.73032014
   8.17030298 17.34012285 14.27211633
   0.78218218 16.89775749 14.20802957
  14.89790566  1.42919560 13.15609244
   1.60709516  0.94711409 10.62190669
  10.57955332  2.34782959 11.30707087
  18.86679123  3.87160553 12.98914499
  22.78263846  3.28912338 16.09724250
   6.43261122  5.42138249 12.05751853
  13.02497128 14.04561295 11.87575437
   9.19178731 17.58053443 16.66050309
   4.15590840  6.34186120 10.89510594
  20.28712811 12.39314649 17.13054816
  20.26706433 17.52644236 12.55556607
   7.04790320 13.78911669 12.31057251
   9.87045805  4.73421333 10.20482654
  18.99157710  8.43108983 13.98305074
  23.02490969  1.31868896 14.01233414
  12.12706007  8.29126203 16.76529109
   0.80854198 16.67059137 11.54385891
  22.54593219  5.49427402  9.44298747
   1.63005096  6.09065222 10.11814055
   4.87647100 13.20393591 10.62861051
   0.91072893  7.59464512 13.41772355
   5.61022575  5.17840454 15.80700147
   9.31193164  3.51784030 17.32344330
  10.66946484 10.15398601 15.64005727
  21.29705291 13.57580880 14.98684170
  20.34739459  1.95787901 11.88993046
  13.40476402 12.09287863 10.11168720
   3.33439013  2.88355087 10.10739962
   8.19442341 13.88355202 16.31063617
  21.32759690 15.31330728 12.98949491
   1.43600223  9.72877939 11.88926245
  16.58313365 10.06030463 11.28987623
   1.76725442 14.80154966 12.98450890
  16.39878711 14.99633320 11.63069310
  17.09100163  0.88614943 14.59873578
  21.51311633  5.46607176 16.99725334
  17.20142736 15.45214059 16.47462124
  14.63491423  9.55703168 13.07549710
  13.03010146 11.41099800 12.56123752
   9.97363233  4.44064551 14.91833666
  22.90303759 13.19667544 12.81787194
  15.31436414 10.75654872 17.02970332
   9.29827401 13.50580766 13.86120382
  14.10975474  9.38073831 10.36813464
  16.84529712 11.42897823 14.97332868
   3.43734075  6.59561103 16.66661531
   1.55250844  9.94029828 14.56953294
  19.17000015 16.02943520 14.42637800
  19.38959778  6.44001838 12.14868300
  12.34827535  5.41344322 14.31855147
  17.25285091  9.03506651 16.00481016
  13.05025010  3.12466491 10.61647095
  18.86866258  4.64651295 10.30420244
   5.55892333 17.27408272 13.65458756
  16.21453240 14.05740447 14.55584218
  21.62774548 17.20993532 14.86503719
  12.30818899  5.75858697 10.71452528
  10.97384955 17.91619424 14.68333732
  19.60953685  1.71701594 14.51007753
  12.59301152  2.10962891 13.07168996
   8.19848185  3.38158106 11.81890631
   0.27532438 17.44013033  9.01248080
  10.74107208 10.54704204 18.16365682
  15.33358375 16.76934745 10.19493214
   1.78612593 12.43164437 11.71794928
  10.56116629  7.30906002 14.84852575
  16.83785811 12.69249221 10.20446890
  10.48963891 12.69825475 16.19938188
  17.61819454 12.85383871 12.80442605
  18.22873551  2.19375865 16.68707487
  23.25384464  5.58158514 12.05458163
  12.44803487  9.17824819 14.17992035
  19.12182067  9.04361594 11.38355200
   5.52054089  2.62343435 16.27261587
   4.76497818 15.05333538 12.64952801
   5.61839145 10.12208662 14.05500609
   1.43171283 11.33352850 16.76624799
   1.07865368 10.91526714  9.52151395
  18.74221023 17.73334618 16.28412913
  12.59506368  0.50191281 10.87439573
  14.20134058  5.66328513 16.26709140
  20.16990973  0.07395004  9.92550906
   2.22199659  2.70047811 12.55674536
   4.01437946  3.69710406 14.27307362
  15.00637423 12.76530097 12.22697399
  10.22576747  7.42551174 10.38808912
  13.45451621  1.04865594 15.34961288
   3.54535369 10.75328740 10.45651017
   6.26813510 10.91510113 10.54651395
  10.30702051  5.83862961 12.64390410
   5.57211440  2.87241773 11.55719116
   1.70414141  2.72007082 15.12276736
  19.78550275  9.85411739 16.12356890
  14.54261460  5.07285684 11.04652184
  14.10921452 16.15556596 12.56053950
   0.73477264  3.53889327 10.45741115
  14.22408013  3.54255220 14.71477806
   3.10901352 17.00414686 12.89022683
   1.87882865  5.08079781 13.75435781
   8.73121799  1.86134451 15.30403006
   1.56062861 12.63061773 14.40165254
  15.60335582  7.52728779 11.56015827
  18.71113820 13.21847419 15.16543420
  16.47777184 17.34580083 12.64014391
  13.95592863 11.44032267 14.89295909
  16.92262721  5.32192921 12.14235921
  22.88591565  5.69246772 14.71271621
   3.70764226 11.41490527 15.33869544
  14.82716522  5.92171361 13.65139239
  19.19611489  7.17635042 16.28474594
  22.44155659  0.49367766 11.20910044
   6.60492451  3.53412022 13.94286633
   5.83544193  8.02830396 12.39472924
   6.35210903 15.39165620 15.28732390
   4.76813504 12.42343385 13.08920785
   3.44435051  8.62697504 13.24126574
   5.25503109  7.65696569 14.96707282
  21.33745138  8.20429214 12.73515651
  20.36286723 12.76750071 12.47800922
  17.28034963  1.68227812 11.96927179
   5.20160189 16.84878525 10.96698378
   5.90009828  7.29824327 17.45200316
  14.74504594 15.98218995 15.96862513
   9.60385771 14.29878658 11.38342242
  21.48621551  3.55245637 13.66334053
   3.10309823  8.03742302  8.93260776
   3.63220806  5.50021683  8.34890949
   8.73253334  2.37219755  9.35415932
   0.81040604  5.28873961 17.02966391
  13.40739700  4.65476936  8.60535697
   5.72369221 13.94950106 17.46646300
   4.85490080 11.74990155  8.34376522
   6.44687148  7.10699146  9.87629901
   8.55333550 10.82900896  9.20004704
   5.29986878  1.01806603  9.62744117
   5.64688233  3.55318002  8.85384768
  11.73544815 16.16960912 12.22767567
  12.87798899 14.98877127 14.36148734
  12.75334462 11.72018587 17.08631569
  11.20961560  2.18106748 16.02428998
   6.15226424 12.57141452 15.28434956
  10.39049275 15.30666593 15.64329776
  17.92254766 11.17240427 17.45592700
  19.77262839 15.06938946 16.74777983
  14.97544271 13.38138215 16.68679045
   0.18970722  0.60405246 16.20993353
   6.67162335  0.01594095 15.96922904
  11.80762447 17.57726584 16.89147394
  13.04765289  7.99998735 19.13245866
  10.07269942  7.66427085 18.89428884
   1.94841153 10.98908596 10.92575188
   9.57506616 13.84032555 15.46430023
  19.70678075  7.99967650 12.57708649
   0.40008717 17.94875972 10.58159830
   0.34415087  5.14987929 10.51358498
   0.21655778  2.08410701 15.39093938
  14.26350614 11.89578375 16.43034845
   5.00929409  8.62175714 13.70332138
  21.42278905 13.69169878 13.34099278
  12.18741762  2.00159257 11.45195358
   9.80960162  3.04294521 15.83824699
   1.95373172  2.52197018 10.94101594
  16.43233932  0.81266960 13.10088356
  15.56990048 16.27354967 11.76083937
  15.21965321  9.13359373 11.56390395
   4.64622069 16.53530673 12.47363180
   5.01922010  6.64101513 16.22697705
  15.76566993 14.72918404 15.98683903
   5.07336379 11.62316201 14.47560579
   8.63383069 13.32142384 12.34509184
  18.66407259 16.09801048 16.01151892
  20.59587983 16.53123202 13.76387216
  13.47557398 10.39400178 13.74584163
  13.80994193  2.09249240 14.12000622
  20.08975493  2.75647993 13.31199648
  19.56093698 10.93396653 17.36113169
   3.13099191  6.52942423  9.59392828
  18.51026388  5.07284540 11.87902451
   9.34522920  3.21642612 10.64589911
  20.03752689 13.59015740 16.03570573
   6.62174627 16.92625736 14.77664643
   0.54020936  5.98811771 13.50205012
  13.45117902 12.60314055 11.70943634
   5.39023881 13.63805193 12.15046292
  13.90217743  5.15009139 14.74533838
  22.83005746  4.93409465 16.20179834
  20.81044864  0.46044249 11.40392910
   2.45199912  3.54117925 13.91903566
   1.12715225 13.28353886 12.97472440
   5.43165016  3.72647156 15.08409209
  13.14328356  4.67138795 10.24864117
  11.17741092 11.31463495 16.73334924
   6.57471215 13.95681257 16.06713824
   4.88127424 11.65920104  9.99508876
  17.33193663 12.87269929 14.40517536
  23.09557410 17.95152927 14.79487987
  16.46058793 13.35205634 11.67438144
  18.44359955  1.07661688 15.50512766
  10.68289909  5.95194918 11.00303640
  10.54587588 16.92559352 15.98014925
  11.91999073  0.71549003 15.75075787
   5.71814202  6.71222076 11.31647527
  15.41693082  5.98004644 12.10686792
  10.77043368  5.74182749 14.21530569
   7.89661487 10.69048859 10.72869482
  18.80899857  8.62566141 15.58735242
   1.62029077 16.28843975 12.91760565
   4.96103076  2.61769098 10.04353415
   1.83153245  8.95161915 13.29886860
  13.05343995 15.44545689 12.76234739
  16.81910020 10.58386722 16.38583677
   6.71066321  3.80730339 12.34244318
   2.06409249 11.33541975 15.25910043
   8.28775186  0.31103264 15.56057132
  11.39863521  8.67101911 15.32195035
  11.35151011  8.75364854 18.51635113
 


--------------------------------------------------------------------------------------------------------


 k-point  1 :   0.0000 0.0000 0.0000  plane waves:  289505
 k-point  2 :   0.3333 0.0000 0.0000  plane waves:  289422
 k-point  3 :   0.0000 0.3333 0.0000  plane waves:  289550
 k-point  4 :   0.3333 0.3333 0.0000  plane waves:  289551
 k-point  5 :  -0.3333 0.3333 0.0000  plane waves:  289551

 maximum and minimum number of plane-waves per node :     72451    72309

 maximum number of plane-waves:    289551
 maximum index in each direction: 
   IXMAX=   43   IYMAX=   33   IZMAX=   49
   IXMIN=  -43   IYMIN=  -33   IZMIN=  -49


 real space projection operators:
  total allocation   :      13569.94 KBytes
  max/ min on nodes  :       3395.77       3389.81


 parallel 3D FFT for wavefunctions:
    minimum data exchange during FFTs selected (reduces bandwidth)
 parallel 3D FFT for charge:
    minimum data exchange during FFTs selected (reduces bandwidth)


 total amount of memory used by VASP MPI-rank0   158947. kBytes
=======================================================================

   base      :      30000. kBytes
   nonlr-proj:      16722. kBytes
   fftplans  :      16927. kBytes
   grid      :      24077. kBytes
   one-center:       1057. kBytes
   wavefun   :      70164. kBytes
 
     INWAV:  cpu time    0.0000: real time    0.0012
 Broyden mixing: mesh for mixing (old mesh)
   NGX = 85   NGY = 67   NGZ = 99
  (NGX  =256   NGY  =200   NGZ  =300)
  gives a total of 563805 points

 initial charge density was supplied:
 charge density of overlapping atoms calculated
 number of electron    1252.0000000 magnetization 
 keeping initial charge density in first step


--------------------------------------------------------------------------------------------------------


 Maximum index for non-local projection operator           668
 Maximum index for augmentation-charges           360 (set IRDMAX)


--------------------------------------------------------------------------------------------------------


 First call to EWALD:  gamma=   0.079
 Maximum number of real-space cells 3x 3x 2
 Maximum number of reciprocal cells 3x 2x 3

    FEWALD:  cpu time    0.0238: real time    0.0238


--------------------------------------- Iteration      1(   1)  ---------------------------------------


    POTLOK:  cpu time    0.1515: real time    0.1935
    SETDIJ:  cpu time    0.1383: real time    0.1732
     EDDAV:  cpu time   40.9282: real time   41.3195
       DOS:  cpu time    0.0056: real time    0.0058
    --------------------------------------------
      LOOP:  cpu time   41.2236: real time   41.6921

 eigenvalue-minimisations  :  8320
 total energy-change (2. order) : 0.1300786E+05  (-0.4890530E+05)
 number of electron    1252.0000000 magnetization 
 augmentation part     1252.0000000 magnetization 

 DIPCOR: dipole corrections for dipol
 direction  3 min pos    64,
 dipolmoment           0.000000      0.000000      0.269706 electrons x Angstroem
 Tr[quadrupol]    -94438.759151

 energy correction for charged system         0.000000 eV
 dipol+quadrupol energy correction           -0.000591 eV
 added-field ion interaction         30.627648 eV  (added to PSCEN)


 Free energy of the ion-electron system (eV)
  ---------------------------------------------------
  alpha Z        PSCENC =       515.41590032
  Ewald energy   TEWEN  =    310304.81991103
  -Hartree energ DENC   =   -372625.95590048
  -exchange      EXHF   =         0.00000000
  -V(xc)+E(xc)   XCENC  =      3770.41543086
  PAW double counting   =     60076.77464710   -59094.97975615
  entropy T*S    EENTRO =        -1.66412822
  eigenvalues    EBANDS =     -4731.83280277
  atomic energy  EATOM  =     74794.86799615
  Solvation  Ediel_sol  =         0.00000000
  ---------------------------------------------------
  free energy    TOTEN  =     13007.86129784 eV

  energy without entropy =    13009.52542606  energy(sigma->0) =    13008.69336195


--------------------------------------------------------------------------------------------------------




--------------------------------------- Iteration      1(   2)  ---------------------------------------


     EDDAV:  cpu time   53.1963: real time   53.3495
       DOS:  cpu time    0.0070: real time    0.0070
    --------------------------------------------
      LOOP:  cpu time   53.2033: real time   53.3564

 eigenvalue-minimisations  : 11200
 total energy-change (2. order) :-0.1240144E+05  (-0.1205365E+05)
 number of electron    1252.0000000 magnetization 
 augmentation part     1252.0000000 magnetization 

 DIPCOR: dipole corrections for dipol
 direction  3 min pos    64,
 dipolmoment           0.000000      0.000000      0.269706 electrons x Angstroem
 Tr[quadrupol]    -94438.759151

 energy correction for charged system         0.000000 eV
 dipol+quadrupol energy correction           -0.000591 eV
 added-field ion interaction         30.627648 eV  (added to PSCEN)


 Free energy of the ion-electron system (eV)
  ---------------------------------------------------
  alpha Z        PSCENC =       515.41590032
  Ewald energy   TEWEN  =    310304.81991103
  -Hartree energ DENC   =   -372625.95590048
  -exchange      EXHF   =         0.00000000
  -V(xc)+E(xc)   XCENC  =      3770.41543086
  PAW double counting   =     60076.77464710   -59094.97975615
  entropy T*S    EENTRO =        -0.00000000
  eigenvalues    EBANDS =    -17134.93928163
  atomic energy  EATOM  =     74794.86799615
  Solvation  Ediel_sol  =         0.00000000
  ---------------------------------------------------
  free energy    TOTEN  =       606.41894721 eV

  energy without entropy =      606.41894721  energy(sigma->0) =      606.41894721


--------------------------------------------------------------------------------------------------------




--------------------------------------- Iteration      1(   3)  ---------------------------------------


     EDDAV:  cpu time   42.7646: real time   42.7876
       DOS:  cpu time    0.0065: real time    0.0067
    --------------------------------------------
      LOOP:  cpu time   42.7711: real time   42.7943

 eigenvalue-minimisations  :  8768
 total energy-change (2. order) :-0.2606962E+04  (-0.2598705E+04)
 number of electron    1252.0000000 magnetization 
 augmentation part     1252.0000000 magnetization 

 DIPCOR: dipole corrections for dipol
 direction  3 min pos    64,
 dipolmoment           0.000000      0.000000      0.269706 electrons x Angstroem
 Tr[quadrupol]    -94438.759151

[...]
      4.15591      6.34186     10.89511         0.170558      0.268008     -0.092463
     20.28694     12.39323     17.13048        -0.004711     -0.007839      0.004492
     20.26706     17.52644     12.55557        -0.055986      1.264975     -0.952409
      7.04790     13.78912     12.31057        -0.257317     -0.074973     -0.067087
      9.87046      4.73421     10.20483         0.406028      0.018002      0.516002
     18.99206      8.43107     13.98282         0.001027      0.003546      0.002713
     23.02499      1.31837     14.01270         0.002010      0.002236      0.000541
     12.12685      8.29135     16.76630        -0.008452      0.004001      0.010649
      0.80854     16.67059     11.54386        -0.105630      0.438565     -0.280571
     22.54593      5.49427      9.44299         0.187331     -0.186528      0.419047
      1.63005      6.09065     10.11814         0.293620     -0.133043     -0.024217
      4.87647     13.20394     10.62861         0.429863     -0.154440      0.437979
      0.91073      7.59465     13.41772         0.447462      0.049321      0.184167
      5.61007      5.17775     15.80676        -0.008553      0.011929      0.006520
      9.31160      3.51820     17.32437         0.009656     -0.008845     -0.006745
     10.66955     10.15413     15.64009         0.001816     -0.005216     -0.009135
     21.29692     13.57548     14.98699         0.012339      0.003108     -0.012546
     20.34739      1.95788     11.88993        -0.084795     -0.042355      0.441696
     13.40476     12.09288     10.11169        -0.262883      0.191839      0.106832
      3.33439      2.88355     10.10740        -0.031550     -0.060346      0.195329
      8.19454     13.88336     16.31091         0.001214      0.000273      0.000916
     21.32760     15.31331     12.98949         0.319984     -1.487370      0.198535
      1.43600      9.72878     11.88926         0.541735      0.267639      0.071073
     16.58313     10.06030     11.28988        -0.122992     -0.550311     -0.035659
      1.76725     14.80155     12.98451        -0.025216     -6.361138      0.309269
     16.39879     14.99633     11.63069         1.815350     -3.825844     -0.202040
     17.09138      0.88599     14.59861         0.004685     -0.000791     -0.002552
     21.51307      5.46599     16.99707        -0.003155     -0.004619      0.003811
     17.20148     15.45208     16.47485         0.008837      0.005019     -0.000998
     14.63491      9.55703     13.07550         2.016010     -1.228310     -1.210223
     13.03010     11.41100     12.56124        -3.570958     -2.619898      1.606439
      9.97341      4.44061     14.91835        -0.002420      0.000220     -0.010272
     22.90304     13.19668     12.81787         0.412705      0.296584      0.250881
     15.31492     10.75647     17.02959        -0.015833      0.009841      0.002828
      9.29833     13.50565     13.86125         0.000016     -0.005149     -0.011172
     14.10975      9.38074     10.36813         0.271592     -0.113708      0.374375
     16.84537     11.42906     14.97335        -0.000510     -0.000544      0.001282
      3.43742      6.59535     16.66626        -0.033056     -0.023935     -0.002002
      1.55253      9.94026     14.56939        -0.000182     -0.000476     -0.002172
     19.16981     16.02973     14.42599         0.004074      0.004842     -0.000317
     19.38960      6.44002     12.14868        -0.134859      0.244894      0.193766
     12.34788      5.41340     14.31841         0.011131     -0.001476      0.008957
     17.25306      9.03519     16.00479        -0.005208      0.001621     -0.002398
     13.05025      3.12466     10.61647        -1.381970     -1.827934      0.527673
     18.86866      4.64651     10.30420        -0.042916     -0.026964      0.761783
      5.55892     17.27408     13.65459        -0.735734      0.224331     -0.891618
     16.21461     14.05747     14.55581         0.004278     -0.001639     -0.003127
     21.62794     17.21010     14.86524        -0.005335     -0.003264      0.004061
     12.30819      5.75859     10.71453        -7.880765      6.657089      3.194956
     10.97407     17.91628     14.68308        -0.002659     -0.007342      0.001733
     19.60945      1.71730     14.51008        -0.001052      0.005477      0.002229
     12.59301      2.10963     13.07169        -2.084501      0.581027     -1.024158
      8.19848      3.38158     11.81891        -0.113003      0.161784      0.039591
      0.27532     17.44013      9.01248        -0.251678      0.115060      0.332404
     10.74115     10.54738     18.16397        -0.000525      0.017741      0.005238
     15.33358     16.76935     10.19493        -0.567986      0.119975      0.633171
      1.78613     12.43164     11.71795         0.014926     -0.124395      0.117313
     10.56090      7.30911     14.84845        -0.001417      0.004018     -0.000513
     16.83786     12.69249     10.20447        -0.055178      0.283230      0.496209
     10.49000     12.69776     16.19932         0.000793      0.001947     -0.009489
     17.61819     12.85384     12.80443        -0.375731      0.226778     -1.076289
     18.22830      2.19372     16.68670        -0.014400      0.010629      0.025788
     23.25384      5.58159     12.05458         0.246157      0.009497     -0.009072
     12.44896      9.17842     14.17938        -0.007273     -0.019682      0.016909
     19.12182      9.04362     11.38355         0.334299     -0.389482      0.437589
      5.52032      2.62344     16.27271        -0.007884      0.021396     -0.008845
      4.76498     15.05334     12.64953         0.598436     -6.691614      0.318295
      5.61860     10.12267     14.05471        -0.007686     -0.010867     -0.003012
      1.43181     11.33378     16.76607         0.001997      0.006011     -0.004708
      1.07865     10.91527      9.52151         0.189171      0.221986      0.445244
     18.74202     17.73314     16.28441         0.006865      0.009736     -0.002463
     12.59506      0.50191     10.87440        -0.225221      0.372816      0.165365
     14.20115      5.66354     16.26778        -0.002121      0.005054     -0.004180
     20.16991      0.07395      9.92551        -0.068327      0.004806      0.304646
      2.22200      2.70048     12.55675        -0.038556     -0.054793     -0.787298
      4.01434      3.69735     14.27300        -0.001991      0.002378      0.007376
     15.00637     12.76530     12.22697         2.635303      0.201558     -0.605223
     10.22577      7.42551     10.38809         0.254772     -0.707329      0.527684
     13.45452      1.04884     15.34951         0.013014     -0.004560     -0.001492
      3.54535     10.75329     10.45651        -0.001095      0.705755      0.085152
      6.26814     10.91510     10.54651         0.153787      0.313407      0.043498
     10.30702      5.83863     12.64390         0.355044     -0.009633     -0.849720
      5.57211      2.87242     11.55719         0.328226      0.285246     -0.354777
      1.70393      2.72029     15.12281        -0.000509      0.005835      0.006615
     19.78520      9.85413     16.12372         0.003921      0.002834      0.003964
     14.54261      5.07286     11.04652         1.380042      0.649080      0.832709
     14.10921     16.15557     12.56054        23.512517     14.635193     -4.486943
      0.73477      3.53889     10.45741         0.415946      0.154010      0.274109
     14.22404      3.54253     14.71462        -0.000161     -0.003045     -0.004438
      3.10901     17.00415     12.89023         0.019332     -0.151875     -0.328375
      1.87895      5.08012     13.75367        -0.011017      0.011057     -0.003301
      8.73168      1.86160     15.30388        -0.007594     -0.014921     -0.014424
      1.56061     12.63083     14.40168         0.000546      0.002236      0.002220
     15.60336      7.52729     11.56016        -0.324455      0.210636      0.444123
     18.71135     13.21847     15.16555        -0.011072     -0.009753     -0.003792
     16.47777     17.34580     12.64014        -0.779840      0.350226     -0.213623
     13.95553     11.44064     14.89273        -0.006907      0.003243      0.001957
     16.92263      5.32193     12.14236         0.253077      0.049860     -0.024054
     22.88569      5.69275     14.71235        -0.005396      0.001213      0.005397
      3.70762     11.41504     15.33871        -0.012938      0.001039     -0.001353
     14.82717      5.92171     13.65139         0.325694      0.194720     -0.701295
     19.19620      7.17626     16.28442        -0.000562      0.001062     -0.002492
     22.44156      0.49368     11.20910        -0.301289     -0.374215     -0.320988
      6.60481      3.53402     13.94376         0.007510     -0.000902     -0.005059
      5.83544      8.02830     12.39473        -0.028859     -0.729419     -0.632733
      6.35224     15.39164     15.28699        -0.009945     -0.002284      0.004582
      4.76814     12.42343     13.08921         0.266127      0.529701     -0.349511
      3.44435      8.62698     13.24127        -0.334441      0.088020      0.184091
      5.25483      7.65683     14.96738         0.008260      0.006653     -0.017338
     21.33745      8.20429     12.73516        -0.246607     -0.143178     -0.138915
     20.36287     12.76750     12.47801         0.320858      0.275309      0.437436
     17.28035      1.68228     11.96927        -0.169133     -0.274120      0.489142
      5.20160     16.84879     10.96698        -0.330356      0.361918      0.373214
      5.89990      7.29814     17.45208        -0.007104     -0.000388     -0.006533
     14.74510     15.98197     15.96859         0.000816      0.001272     -0.009029
      9.60386     14.29879     11.38342        -0.516482     -0.405162      0.361324
     21.48622      3.55246     13.66334        -0.766697     -0.031669     -0.112216
      3.10310      8.03742      8.93261         0.096492     -0.239940      0.318500
      3.63221      5.50022      8.34891        -0.161317      0.544896      0.362102
      8.73253      2.37220      9.35416         0.190730      0.604387      0.348986
      0.80976      5.28888     17.02945         0.000935      0.004175     -0.002472
     13.40740      4.65477      8.60536        -0.207180      0.161575      0.219712
      5.72394     13.94954     17.46656         0.007010      0.002262      0.003092
      4.85490     11.74990      8.34377         0.076597     -0.129281      0.510662
      6.44687      7.10699      9.87630         0.021605      0.047228      0.707290
      8.55334     10.82901      9.20005        -0.085826     -0.023058      0.751385
      5.29987      1.01807      9.62744        -0.072709      0.787505      0.119105
      5.64688      3.55318      8.85385        -0.375740     -0.060115      0.456432
     11.73545     16.16961     12.22768        -2.209820      1.025269     -0.690679
     12.87809     14.98839     14.36168         0.004186      0.004375     -0.005521
     12.75362     11.72002     17.08638        -0.002776     -0.006491      0.003523
     11.21023      2.18120     16.02471        -0.002991      0.003531     -0.008132
      6.15213     12.57155     15.28451         0.001766     -0.006586      0.005125
     10.39048     15.30636     15.64296        -0.002147     -0.000736      0.000262
     17.92282     11.17264     17.45580        -0.015070     -0.002516     -0.003743
     19.77268     15.06871     16.74755        -0.002175      0.002440      0.000551
     14.97524     13.38119     16.68725         0.010663      0.007444      0.009868
      0.18976      0.60450     16.21009         0.001266     -0.001793      0.003224
      6.67175      0.01600     15.96946        -0.001471      0.004296      0.005780
     11.80721     17.57789     16.89119         0.014238     -0.002727      0.014742
     13.04749      8.00100     19.13301        -0.010725      0.016694      0.009459
     10.07275      7.66508     18.89491        -0.012825      0.012731      0.018335
      1.94841     10.98909     10.92575        -0.070411     -0.150380      0.031217
      9.57507     13.84030     15.46400         0.002086     -0.008359      0.005464
     19.70678      7.99968     12.57709         0.142345     -0.182118     -0.315979
      0.40009     17.94876     10.58160         0.095786     -0.135176      0.300556
      0.34415      5.14988     10.51358         0.037888      0.034305      0.061946
      0.21634      2.08416     15.39095        -0.004510     -0.000505      0.002223
     14.26304     11.89584     16.43041         0.000850      0.003223     -0.002222
      5.00908      8.62142     13.70317         0.003532      0.003965      0.005699
     21.42279     13.69170     13.34099         0.195038      0.239621     -0.641456
     12.18742      2.00159     11.45195         0.175101     -0.062918      0.478448
      9.80917      3.04296     15.83776         0.010732      0.000838      0.019008
      1.95373      2.52197     10.94102         0.071285     -0.113100      0.066116
     16.43234      0.81267     13.10088         0.057816     -0.069784     -0.323351
     15.56990     16.27355     11.76084        -0.458039      4.566355     -0.226647
     15.21965      9.13359     11.56390         0.104244      0.011948      0.216659
      4.64622     16.53531     12.47363        -0.741086      6.173731     -0.372779
      5.01888      6.64132     16.22719         0.019693     -0.002744     -0.001167
     15.76574     14.72937     15.98661        -0.000981     -0.006449      0.003159
      5.07336     11.62316     14.47579         0.000175      0.000367     -0.002812
      8.63383     13.32142     12.34509        -0.278758     -0.093868      0.090727
     18.66418     16.09819     16.01176         0.000454     -0.005285     -0.004256
     20.59623     16.53114     13.76379        -0.002064      0.003278      0.001229
     13.47523     10.39386     13.74634         0.008942      0.007264     -0.008364
     13.81011      2.09222     14.11995        -0.002527      0.001256     -0.000585
     20.08975      2.75648     13.31200        -0.192443     -0.015178     -0.430944
     19.56049     10.93393     17.36107        -0.000445      0.000079     -0.001325
      3.13099      6.52942      9.59393        -0.106609     -0.115285      0.044080
     18.51026      5.07285     11.87902        -0.277420      0.106840      0.076604
      9.34523      3.21643     10.64590        -0.143747     -0.308558      0.219515
     20.03774     13.59047     16.03620         0.001330     -0.009993     -0.001251
      6.62130     16.92647     14.77673         0.003234      0.000886      0.002701
      0.54021      5.98812     13.50205         0.292413      0.171084     -0.390825
     13.45118     12.60314     11.70944         3.923778     -0.854900     -2.495084
      5.39024     13.63805     12.15046         0.086629     -0.591845      0.004761
     13.90246      5.14985     14.74539        -0.000004     -0.000777      0.004568
     22.83015      4.93417     16.20263        -0.007980      0.002703     -0.014492
     20.81045      0.46044     11.40393         0.022487      0.048264      0.103922
      2.45174      3.54171     13.91928        -0.001216     -0.010196     -0.004800
      1.12715     13.28354     12.97472        -0.136101     -0.556895     -0.260502
      5.43177      3.72705     15.08406        -0.008779     -0.014944      0.008990
     13.14328      4.67139     10.24864         8.359159     -5.354412     -3.585289
     11.17749     11.31483     16.73337         0.005826     -0.000932      0.005035
      6.57462     13.95685     16.06706         0.003882      0.001538     -0.000121
      4.88127     11.65920      9.99509         0.062193     -0.077231      0.005610
     17.33192     12.87251     14.40478         0.009456      0.002240      0.009902
     23.09553     17.95073     14.79465         0.001844      0.009590      0.013158
     16.46059     13.35206     11.67438        -0.683571     -1.353806      0.336145
     18.44380      1.07655     15.50527         0.000778     -0.007322     -0.009887
     10.68290      5.95195     11.00304        -1.147827      0.522219      0.442225
     10.54589     16.92545     15.98048        -0.003163      0.001264     -0.007664
     11.92064      0.71509     15.75091        -0.002623      0.004884     -0.003592
      5.71814      6.71222     11.31648         0.014368     -0.131098     -0.113734
     15.41693      5.98005     12.10687        -0.163946     -0.481402     -0.789538
     10.77073      5.74159     14.21499        -0.003382     -0.001371      0.001137
      7.89661     10.69049     10.72869        -0.136404     -0.084652     -0.067710
     18.80879      8.62552     15.58751         0.002661      0.003613     -0.006594
      1.62029     16.28844     12.91761        -0.340755      6.439891     -0.549156
      4.96103      2.61769     10.04353        -0.079158     -0.037320      0.059737
      1.83153      8.95162     13.29887         0.026699     -0.153391     -0.322476
     13.05344     15.44546     12.76235       -22.302811    -15.869746      4.698803
     16.81820     10.58365     16.38590         0.008438      0.003962     -0.000015
      6.71066      3.80730     12.34244        -0.232479     -0.005823     -0.733324
      2.06401     11.33521     15.25888         0.003141      0.003971     -0.002912
      8.28755      0.31144     15.56061         0.005815     -0.006237     -0.002937
     11.39855      8.67091     15.32266         0.011152      0.001372     -0.002987
     11.35104      8.75420     18.51633        -0.007015      0.016493      0.011593
 -----------------------------------------------------------------------------------
    total drift:                                0.521372      0.369634      0.203436


--------------------------------------------------------------------------------------------------------



  FREE ENERGIE OF THE ION-ELECTRON SYSTEM (eV)
  ---------------------------------------------------
  free  energy   TOTEN  =     -1861.77184666 eV

  energy  without entropy=    -1861.77184666  energy(sigma->0) =    -1861.77184666
 
 d Force = 0.1475098E-03[ 0.212E-04, 0.274E-03]  d Energy = 0.1762946E-03-0.288E-04
 d Force =-0.1086154E+01[-0.109E+01,-0.109E+01]  d Ewald  =-0.1086154E+01-0.234E-06


--------------------------------------------------------------------------------------------------------


    POTLOK:  cpu time    0.2533: real time    0.2578


--------------------------------------------------------------------------------------------------------




--------------------------------------------------------------------------------------------------------


  
 reached required accuracy - stopping structural energy minimisation
 writing wavefunctions
     LOOP+:  cpu time  188.3321: real time  193.7226
    4ORBIT:  cpu time    0.0000: real time    0.0000

 total amount of memory used by VASP MPI-rank0   158947. kBytes
=======================================================================

   base      :      30000. kBytes
   nonlr-proj:      16722. kBytes
   fftplans  :      16927. kBytes
   grid      :      24077. kBytes
   one-center:       1057. kBytes
   wavefun   :      70164. kBytes
 
  
  
 General timing and accounting informations for this job:
 ========================================================
  
                  Total CPU time used (sec):     1510.403
                            User time (sec):     1496.137
                          System time (sec):       14.266
                         Elapsed time (sec):     1525.078
  
                   Maximum memory used (kb):      542540.
                   Average memory used (kb):           0.
  
                          Minor page faults:       212943
                          Major page faults:           18
                 Voluntary context switches:         2690
