  COHP#    atomMU    atomNU   distance   translation   ICOHP (at) eF 
                                                          for spin 1 
      1      O204      W270    1.72066     0   0   0       -10.32618 
      1   O204_2s   W270_6s    1.72066     0   0   0        -1.51241 
      1   O204_2s W270_5d_xy    1.72066     0   0   0        -0.56209 
      1   O204_2s W270_5d_yz    1.72066     0   0   0        -0.69406 
      1   O204_2s W270_5d_z^2    1.72066     0   0   0        -0.00801 
      1   O204_2s W270_5d_xz    1.72066     0   0   0        -0.36632 
      1   O204_2s W270_5d_x^2-y^2    1.72066     0   0   0        -0.06324 
      1 O204_2p_y   W270_6s    1.72066     0   0   0        -0.05982 
      1 O204_2p_y W270_5d_xy    1.72066     0   0   0        -0.44743 
      1 O204_2p_y W270_5d_yz    1.72066     0   0   0        -0.43263 
      1 O204_2p_y W270_5d_z^2    1.72066     0   0   0        -0.20636 
      1 O204_2p_y W270_5d_xz    1.72066     0   0   0        -1.00083 
      1 O204_2p_y W270_5d_x^2-y^2    1.72066     0   0   0        -0.31531 
      1 O204_2p_z   W270_6s    1.72066     0   0   0        -0.02865 
      1 O204_2p_z W270_5d_xy    1.72066     0   0   0        -1.20035 
      1 O204_2p_z W270_5d_yz    1.72066     0   0   0        -0.01054 
      1 O204_2p_z W270_5d_z^2    1.72066     0   0   0        -1.07894 
      1 O204_2p_z W270_5d_xz    1.72066     0   0   0        -0.00807 
      1 O204_2p_z W270_5d_x^2-y^2    1.72066     0   0   0        -0.09796 
      1 O204_2p_x   W270_6s    1.72066     0   0   0        -0.00629 
      1 O204_2p_x W270_5d_xy    1.72066     0   0   0         0.00380 
      1 O204_2p_x W270_5d_yz    1.72066     0   0   0        -1.20503 
      1 O204_2p_x W270_5d_z^2    1.72066     0   0   0        -0.09732 
      1 O204_2p_x W270_5d_xz    1.72066     0   0   0         0.01461 
      1 O204_2p_x W270_5d_x^2-y^2    1.72066     0   0   0        -0.94294 
      2       H48        C1    1.10919     0   0   0        -6.44584 
      2    H48_1s     C1_2s    1.10919     0   0   0        -2.77633 
      2    H48_1s   C1_2p_y    1.10919     0   0   0        -2.10106 
      2    H48_1s   C1_2p_z    1.10919     0   0   0        -0.67671 
      2    H48_1s   C1_2p_x    1.10919     0   0   0        -0.89174 
      3        C1      W270    1.90105     0   0   0        -6.41194 
      3     C1_2s   W270_6s    1.90105     0   0   0        -0.66875 
      3     C1_2s W270_5d_xy    1.90105     0   0   0        -0.01809 
      3     C1_2s W270_5d_yz    1.90105     0   0   0         0.00002 
      3     C1_2s W270_5d_z^2    1.90105     0   0   0        -0.04237 
      3     C1_2s W270_5d_xz    1.90105     0   0   0        -0.64866 
      3     C1_2s W270_5d_x^2-y^2    1.90105     0   0   0        -0.60878 
      3   C1_2p_y   W270_6s    1.90105     0   0   0        -0.00031 
      3   C1_2p_y W270_5d_xy    1.90105     0   0   0        -0.71478 
      3   C1_2p_y W270_5d_yz    1.90105     0   0   0        -0.21575 
      3   C1_2p_y W270_5d_z^2    1.90105     0   0   0        -0.03845 
      3   C1_2p_y W270_5d_xz    1.90105     0   0   0         0.01605 
      3   C1_2p_y W270_5d_x^2-y^2    1.90105     0   0   0        -0.14188 
      3   C1_2p_z   W270_6s    1.90105     0   0   0        -0.03760 
      3   C1_2p_z W270_5d_xy    1.90105     0   0   0         0.02089 
      3   C1_2p_z W270_5d_yz    1.90105     0   0   0        -0.02531 
      3   C1_2p_z W270_5d_z^2    1.90105     0   0   0        -0.62560 
      3   C1_2p_z W270_5d_xz    1.90105     0   0   0        -0.04557 
      3   C1_2p_z W270_5d_x^2-y^2    1.90105     0   0   0        -0.61504 
      3   C1_2p_x   W270_6s    1.90105     0   0   0        -0.29229 
      3   C1_2p_x W270_5d_xy    1.90105     0   0   0        -0.07356 
      3   C1_2p_x W270_5d_yz    1.90105     0   0   0        -0.02807 
      3   C1_2p_x W270_5d_z^2    1.90105     0   0   0        -0.01927 
      3   C1_2p_x W270_5d_xz    1.90105     0   0   0        -1.27378 
      3   C1_2p_x W270_5d_x^2-y^2    1.90105     0   0   0        -0.31498 
      4        C1        C2    1.50561     0   0   0        -8.15156 
      4     C1_2s     C2_2s    1.50561     0   0   0        -0.80681 
      4     C1_2s   C2_2p_y    1.50561     0   0   0        -0.72866 
      4     C1_2s   C2_2p_z    1.50561     0   0   0        -1.23218 
      4     C1_2s   C2_2p_x    1.50561     0   0   0        -0.65246 
      4   C1_2p_y     C2_2s    1.50561     0   0   0        -0.44561 
      4   C1_2p_y   C2_2p_y    1.50561     0   0   0         0.01010 
      4   C1_2p_y   C2_2p_z    1.50561     0   0   0        -0.67301 
      4   C1_2p_y   C2_2p_x    1.50561     0   0   0        -0.29145 
      4   C1_2p_z     C2_2s    1.50561     0   0   0        -0.86836 
      4   C1_2p_z   C2_2p_y    1.50561     0   0   0        -0.61963 
      4   C1_2p_z   C2_2p_z    1.50561     0   0   0        -0.16040 
      4   C1_2p_z   C2_2p_x    1.50561     0   0   0        -0.59720 
      4   C1_2p_x     C2_2s    1.50561     0   0   0        -0.37251 
      4   C1_2p_x   C2_2p_y    1.50561     0   0   0        -0.23667 
      4   C1_2p_x   C2_2p_z    1.50561     0   0   0        -0.47136 
      4   C1_2p_x   C2_2p_x    1.50561     0   0   0        -0.00533 