 vasp.5.4.4.18Apr17-6-g9f103f2a35 (build Oct 20 2021 08:33:53) complex           
 executed on             LinuxGNU date 2024.03.27  11:45:05
 running on   64 total cores
 distrk:  each k-point on   64 cores,    1 groups
 distr:  one band on NCORES_PER_BAND=   4 cores,   16 groups


--------------------------------------------------------------------------------------------------------


 INCAR:
 POTCAR:    PAW_PBE C 08Apr2002                   
 POTCAR:    PAW_PBE H 15Jun2001                   
 POTCAR:    PAW_PBE O 08Apr2002                   
 POTCAR:    PAW_PBE Si 05Jan2001                  
 POTCAR:    PAW_PBE W 08Apr2002                   
 POTCAR:    PAW_PBE C 08Apr2002                   
   VRHFIN =C: s2p2                                                              
   LEXCH  = PE                                                                  
   EATOM  =   147.1560 eV,   10.8157 Ry                                         
                                                                                
   TITEL  = PAW_PBE C 08Apr2002                                                 
   LULTRA =        F    use ultrasoft PP ?                                      
   IUNSCR =        1    unscreen: 0-lin 1-nonlin 2-no                           
   RPACOR =    1.200    partial core radius                                     
   POMASS =   12.011; ZVAL   =    4.000    mass and valenz                      
   RCORE  =    1.500    outmost cutoff radius                                   
   RWIGS  =    1.630; RWIGS  =    0.863    wigner-seitz radius (au A)           
   ENMAX  =  400.000; ENMIN  =  300.000 eV                                      
   ICORE  =        2    local potential                                         
   LCOR   =        T    correct aug charges                                     
   LPAW   =        T    paw PP                                                  
   EAUG   =  644.873                                                            
   DEXC   =    0.000                                                            
   RMAX   =    1.529    core radius for proj-oper                               
   RAUG   =    1.300    factor for augmentation sphere                          
   RDEP   =    1.501    radius for radial grids                                 
   RDEPT  =    1.300    core radius for aug-charge                              
                                                                                
   Atomic configuration                                                         
    4 entries                                                                   
     n  l   j            E        occ.                                          
     1  0  0.50      -273.3789   2.0000                                         
     2  0  0.50       -13.7508   2.0000                                         
     2  1  0.50        -5.2854   2.0000                                         
     3  2  1.50        -5.4423   0.0000                                         
   Description                                                                  
     l       E           TYP  RCUT    TYP  RCUT                                 
     0    -13.7508458     23  1.200                                             
     0     -8.2022199     23  1.200                                             
     1     -5.2854383     23  1.500                                             
     1     34.0145650     23  1.500                                             
     2     -5.4423304      7  1.500                                             
  local pseudopotential read in
  partial core-charges read in
  partial kinetic energy density read in
  atomic valenz-charges read in
  non local Contribution for L=           0  read in
    real space projection operators read in
  non local Contribution for L=           0  read in
    real space projection operators read in
  non local Contribution for L=           1  read in
    real space projection operators read in
  non local Contribution for L=           1  read in
    real space projection operators read in
    PAW grid and wavefunctions read in

   number of l-projection  operators is LMAX  =           4
   number of lm-projection operators is LMMAX =           8

 POTCAR:    PAW_PBE H 15Jun2001                   
   VRHFIN =H: ultrasoft test                                                    
   LEXCH  = PE                                                                  
   EATOM  =    12.4884 eV,    0.9179 Ry                                         
                                                                                
   TITEL  = PAW_PBE H 15Jun2001                                                 
   LULTRA =        F    use ultrasoft PP ?                                      
   IUNSCR =        0    unscreen: 0-lin 1-nonlin 2-no                           
   RPACOR =    0.000    partial core radius                                     
   POMASS =    1.000; ZVAL   =    1.000    mass and valenz                      
   RCORE  =    1.100    outmost cutoff radius                                   
   RWIGS  =    0.700; RWIGS  =    0.370    wigner-seitz radius (au A)           
   ENMAX  =  250.000; ENMIN  =  200.000 eV                                      
   RCLOC  =    0.701    cutoff for local pot                                    
   LCOR   =        T    correct aug charges                                     
   LPAW   =        T    paw PP                                                  
   EAUG   =  400.000                                                            
   RMAX   =    1.123    core radius for proj-oper                               
   RAUG   =    1.200    factor for augmentation sphere                          
   RDEP   =    1.112    radius for radial grids                                 
   RDEPT  =    0.926    core radius for aug-charge                              
                                                                                
   Atomic configuration                                                         
    2 entries                                                                   
     n  l   j            E        occ.                                          
     1  0  0.50        -6.4927   1.0000                                         
     2  1  0.50        -3.4015   0.0000                                         
   Description                                                                  
     l       E           TYP  RCUT    TYP  RCUT                                 
     0     -6.4927494     23  1.100                                             
     0      6.8029130     23  1.100                                             
     1     -4.0817478     23  1.100                                             
  local pseudopotential read in
  atomic valenz-charges read in
  non local Contribution for L=           0  read in
    real space projection operators read in
  non local Contribution for L=           0  read in
    real space projection operators read in
  non local Contribution for L=           1  read in
    real space projection operators read in
    PAW grid and wavefunctions read in

   number of l-projection  operators is LMAX  =           3
   number of lm-projection operators is LMMAX =           5

 POTCAR:    PAW_PBE O 08Apr2002                   
   VRHFIN =O: s2p4                                                              
   LEXCH  = PE                                                                  
   EATOM  =   432.3788 eV,   31.7789 Ry                                         
                                                                                
   TITEL  = PAW_PBE O 08Apr2002                                                 
   LULTRA =        F    use ultrasoft PP ?                                      
   IUNSCR =        1    unscreen: 0-lin 1-nonlin 2-no                           
   RPACOR =    1.200    partial core radius                                     
   POMASS =   16.000; ZVAL   =    6.000    mass and valenz                      
   RCORE  =    1.520    outmost cutoff radius                                   
   RWIGS  =    1.550; RWIGS  =    0.820    wigner-seitz radius (au A)           
   ENMAX  =  400.000; ENMIN  =  300.000 eV                                      
   ICORE  =        2    local potential                                         
   LCOR   =        T    correct aug charges                                     
   LPAW   =        T    paw PP                                                  
   EAUG   =  605.392                                                            
   DEXC   =    0.000                                                            
   RMAX   =    1.553    core radius for proj-oper                               
   RAUG   =    1.300    factor for augmentation sphere                          
   RDEP   =    1.550    radius for radial grids                                 
   RDEPT  =    1.329    core radius for aug-charge                              
                                                                                
   Atomic configuration                                                         
    4 entries                                                                   
     n  l   j            E        occ.                                          
     1  0  0.50      -514.6923   2.0000                                         
     2  0  0.50       -23.9615   2.0000                                         
     2  1  0.50        -9.0305   4.0000                                         
     3  2  1.50        -9.5241   0.0000                                         
   Description                                                                  
     l       E           TYP  RCUT    TYP  RCUT                                 
     0    -23.9615318     23  1.200                                             
     0     -9.5240782     23  1.200                                             
     1     -9.0304911     23  1.520                                             
     1      8.1634956     23  1.520                                             
     2     -9.5240782      7  1.500                                             
  local pseudopotential read in
  partial core-charges read in
  partial kinetic energy density read in
  kinetic energy density of atom read in
  atomic valenz-charges read in
  non local Contribution for L=           0  read in
    real space projection operators read in
  non local Contribution for L=           0  read in
    real space projection operators read in
  non local Contribution for L=           1  read in
    real space projection operators read in
  non local Contribution for L=           1  read in
    real space projection operators read in
    PAW grid and wavefunctions read in

   number of l-projection  operators is LMAX  =           4
   number of lm-projection operators is LMMAX =           8

 POTCAR:    PAW_PBE Si 05Jan2001                  
   VRHFIN =Si: s2p2                                                             
   LEXCH  = PE                                                                  
   EATOM  =   103.0669 eV,    7.5752 Ry                                         
                                                                                
   TITEL  = PAW_PBE Si 05Jan2001                                                
   LULTRA =        F    use ultrasoft PP ?                                      
   IUNSCR =        1    unscreen: 0-lin 1-nonlin 2-no                           
   RPACOR =    1.500    partial core radius                                     
   POMASS =   28.085; ZVAL   =    4.000    mass and valenz                      
   RCORE  =    1.900    outmost cutoff radius                                   
   RWIGS  =    2.480; RWIGS  =    1.312    wigner-seitz radius (au A)           
   ENMAX  =  245.345; ENMIN  =  184.009 eV                                      
   ICORE  =        2    local potential                                         
   LCOR   =        T    correct aug charges                                     
   LPAW   =        T    paw PP                                                  
   EAUG   =  322.069                                                            
   DEXC   =    0.000                                                            
   RMAX   =    1.950    core radius for proj-oper                               
   RAUG   =    1.300    factor for augmentation sphere                          
   RDEP   =    1.993    radius for radial grids                                 
   RDEPT  =    1.837    core radius for aug-charge                              
                                                                                
   Atomic configuration                                                         
    6 entries                                                                   
     n  l   j            E        occ.                                          
     1  0  0.50     -1785.8828   2.0000                                         
     2  0  0.50      -139.4969   2.0000                                         
     2  1  1.50       -95.5546   6.0000                                         
     3  0  0.50       -10.8127   2.0000                                         
     3  1  0.50        -4.0811   2.0000                                         
     3  2  1.50        -4.0817   0.0000                                         
   Description                                                                  
     l       E           TYP  RCUT    TYP  RCUT                                 
     0    -10.8127223     23  1.900                                             
     0     -7.6451159     23  1.900                                             
     1     -4.0811372     23  1.900                                             
     1      2.4879257     23  1.900                                             
     2     -4.0817478      7  1.900                                             
  local pseudopotential read in
  partial core-charges read in
  partial kinetic energy density read in
  atomic valenz-charges read in
  non local Contribution for L=           0  read in
    real space projection operators read in
  non local Contribution for L=           0  read in
    real space projection operators read in
  non local Contribution for L=           1  read in
    real space projection operators read in
  non local Contribution for L=           1  read in
    real space projection operators read in
    PAW grid and wavefunctions read in

   number of l-projection  operators is LMAX  =           4
   number of lm-projection operators is LMMAX =           8

 POTCAR:    PAW_PBE W 08Apr2002                   
   VRHFIN =W : 6s5d                                                             
   LEXCH  = PE                                                                  
   EATOM  =   204.6103 eV,   15.0384 Ry                                         
                                                                                
   TITEL  = PAW_PBE W 08Apr2002                                                 
   LULTRA =        F    use ultrasoft PP ?                                      
   IUNSCR =        1    unscreen: 0-lin 1-nonlin 2-no                           
   RPACOR =    2.330    partial core radius                                     
   POMASS =  183.850; ZVAL   =    6.000    mass and valenz                      
   RCORE  =    2.750    outmost cutoff radius                                   
   RWIGS  =    2.750; RWIGS  =    1.455    wigner-seitz radius (au A)           
   ENMAX  =  223.057; ENMIN  =  167.293 eV                                      
   RCLOC  =    2.147    cutoff for local pot                                    
   LCOR   =        T    correct aug charges                                     
   LPAW   =        T    paw PP                                                  
   EAUG   =  373.438                                                            
   DEXC   =    0.000                                                            
   RMAX   =    2.801    core radius for proj-oper                               
   RAUG   =    1.300    factor for augmentation sphere                          
   RDEP   =    2.886    radius for radial grids                                 
   RDEPT  =    2.230    core radius for aug-charge                              
                                                                                
   Atomic configuration                                                         
   16 entries                                                                   
     n  l   j            E        occ.                                          
     1  0  0.50    -69465.5836   2.0000                                         
     2  0  0.50    -11986.2642   2.0000                                         
     2  1  1.50    -10479.8616   6.0000                                         
     3  0  0.50     -2759.0758   2.0000                                         
     3  1  1.50     -2313.1857   6.0000                                         
     3  2  2.50     -1801.1185  10.0000                                         
     4  0  0.50      -567.6791   2.0000                                         
     4  1  1.50      -421.4694   6.0000                                         
     4  2  2.50      -236.3473  10.0000                                         
     4  3  3.50       -31.2666  14.0000                                         
     5  0  0.50       -77.1085   2.0000                                         
     5  1  1.50       -41.3856   6.0000                                         
     5  2  2.50        -3.3185   5.0000                                         
     6  0  0.50        -5.1438   1.0000                                         
     6  1  0.50        -3.8096   0.0000                                         
     5  3  2.50        -1.3606   0.0000                                         
   Description                                                                  
     l       E           TYP  RCUT    TYP  RCUT                                 
     2     -3.3185288     23  2.500                                             
     2     -1.5965414     23  2.500                                             
     0     -5.1438054     23  2.500                                             
     0      4.9117504     23  2.500                                             
     1      2.7211652     23  2.750                                             
     1     27.2116520     23  2.750                                             
  local pseudopotential read in
  partial core-charges read in
  partial kinetic energy density read in
  atomic valenz-charges read in
  non local Contribution for L=           2  read in
    real space projection operators read in
  non local Contribution for L=           2  read in
    real space projection operators read in
  non local Contribution for L=           0  read in
    real space projection operators read in
  non local Contribution for L=           0  read in
    real space projection operators read in
  non local Contribution for L=           1  read in
    real space projection operators read in
  non local Contribution for L=           1  read in
    real space projection operators read in
    PAW grid and wavefunctions read in

   number of l-projection  operators is LMAX  =           6
   number of lm-projection operators is LMMAX =          18

 Optimization of the real space projectors (new method)

 maximal supplied QI-value         = 25.13
 optimisation between [QCUT,QGAM] = [ 11.31, 22.87] = [ 35.82,146.48] Ry 
 Optimized for a Real-space Cutoff    1.00 Angstroem

   l    n(q)    QCUT    max X(q) W(low)/X(q) W(high)/X(q)  e(spline) 
   0      7    11.310   115.676    0.43E-03    0.13E-02    0.19E-06
   0      7    11.310    87.132    0.43E-03    0.13E-02    0.18E-06
   1      6    11.310     4.429    0.42E-03    0.74E-03    0.11E-06
   1      6    11.310     2.733    0.34E-03    0.55E-03    0.92E-07
 Optimization of the real space projectors (new method)

 maximal supplied QI-value         = 34.20
 optimisation between [QCUT,QGAM] = [ 11.29, 22.57] = [ 35.68,142.71] Ry 
 Optimized for a Real-space Cutoff    1.16 Angstroem

   l    n(q)    QCUT    max X(q) W(low)/X(q) W(high)/X(q)  e(spline) 
   0      8    11.287    19.460    0.40E-03    0.73E-03    0.16E-06
   0      8    11.287    12.209    0.38E-03    0.70E-03    0.15E-06
   1      7    11.287     4.655    0.22E-03    0.25E-04    0.22E-06
 Optimization of the real space projectors (new method)

 maximal supplied QI-value         = 24.76
 optimisation between [QCUT,QGAM] = [ 11.39, 22.77] = [ 36.31,145.25] Ry 
 Optimized for a Real-space Cutoff    1.00 Angstroem

   l    n(q)    QCUT    max X(q) W(low)/X(q) W(high)/X(q)  e(spline) 
   0      7    11.387    20.381    0.39E-03    0.13E-02    0.15E-06
   0      7    11.387    15.268    0.42E-03    0.14E-02    0.17E-06
   1      6    11.387     5.964    0.41E-03    0.11E-02    0.17E-06
   1      6    11.387     5.382    0.39E-03    0.87E-03    0.15E-06
 Optimization of the real space projectors (new method)

 maximal supplied QI-value         = 19.84
 optimisation between [QCUT,QGAM] = [ 11.31, 22.82] = [ 35.82,145.81] Ry 
 Optimized for a Real-space Cutoff    1.16 Angstroem

   l    n(q)    QCUT    max X(q) W(low)/X(q) W(high)/X(q)  e(spline) 
   0      8    11.310   159.560    0.27E-03    0.30E-03    0.39E-07
   0      8    11.310   115.863    0.27E-03    0.30E-03    0.38E-07
   1      7    11.310    88.339    0.28E-03    0.28E-03    0.77E-07
   1      7    11.310    48.592    0.27E-03    0.27E-03    0.74E-07
 Optimization of the real space projectors (new method)

 maximal supplied QI-value         = 13.61
 optimisation between [QCUT,QGAM] = [ 11.43, 22.86] = [ 36.58,146.31] Ry 
 Optimized for a Real-space Cutoff    1.56 Angstroem

   l    n(q)    QCUT    max X(q) W(low)/X(q) W(high)/X(q)  e(spline) 
   2     10    11.429   130.855    0.22E-03    0.64E-03    0.11E-05
   2     10    11.429   114.007    0.22E-03    0.64E-03    0.11E-05
   0     11    11.429    84.709    0.39E-04    0.67E-04    0.23E-06
   0     11    11.429    49.163    0.35E-04    0.62E-04    0.21E-06
   1     10    11.429    15.765    0.84E-04    0.15E-03    0.24E-06
   1     10    11.429    10.638    0.58E-04    0.12E-03    0.19E-06

 ----------------------------------------------------------------------------- 
|                                                                             |
|  ADVICE TO THIS USER RUNNING 'VASP/VAMP'   (HEAR YOUR MASTER'S VOICE ...):  |
|                                                                             |
|      You enforced a specific xc-type in the INCAR file,                     |
|      a different type was found on the POTCAR file                          |
|          I HOPE YOU KNOW, WHAT YOU ARE  DOING                               |
|                                                                             |
 ----------------------------------------------------------------------------- 

  PAW_PBE C 08Apr2002                   :
 energy of atom  1       EATOM= -147.1560
 kinetic energy error for atom=    0.0076 (will be added to EATOM!!)
  PAW_PBE H 15Jun2001                   :
 energy of atom  2       EATOM=  -12.4884
 kinetic energy error for atom=    0.0020 (will be added to EATOM!!)
  PAW_PBE O 08Apr2002                   :
 energy of atom  3       EATOM= -432.3788
 kinetic energy error for atom=    0.0224 (will be added to EATOM!!)
  PAW_PBE Si 05Jan2001                  :
 energy of atom  4       EATOM= -103.0669
 kinetic energy error for atom=    0.0006 (will be added to EATOM!!)
  PAW_PBE W 08Apr2002                   :
 energy of atom  5       EATOM= -204.6103
 kinetic energy error for atom=    0.0017 (will be added to EATOM!!)


 POSCAR:  C  H  O Si  W                          
  positions in direct lattice
  velocities in cartesian coordinates
 exchange correlation table for  LEXCH =        9
   RHO(1)=    0.500       N(1)  =     2000
   RHO(2)=  100.500       N(2)  =     4000

 VTST: version 3.2, (02/03/18)

 CHAIN: initializing optimizer
 
 OPT: Using Conjugate-Gradient optimizer
 OPT: CG, Init
 OPT: CG, FDSTEP      0.005000
 OPT: CG, MAXMOVE      0.200000
 
 CHAIN: Read ICHAIN            2

 POSCAR:  C  H  O Si  W                          
  positions in direct lattice
  velocities in cartesian coordinates
 CHAIN: Running the Dimer method

 Dimer: -----------------
 Dimer: Input Parameters
 Dimer:   Seed      0
 Dimer: RotMax      4
 Dimer:     dR      0.005000
 Dimer:  FNMax      1.000000
 Dimer:  FNMin      0.010000
 Dimer: -----------------



--------------------------------------------------------------------------------------------------------


 ion  position               nearest neighbor table
   1  0.555  0.523  0.734-  48 1.10  49 1.18   2 1.46 270 2.02
   2  0.577  0.506  0.784-  47 1.09  50 1.09   1 1.46
   3  0.761  0.104  0.651- 125 0.97
   4  0.926  0.279  0.356-  73 0.98
   5  0.793  0.207  0.373- 108 0.97
   6  0.975  0.944  0.325- 117 0.97
   7  0.626  0.963  0.375- 119 0.98
   8  0.821  0.995  0.369- 137 0.97
   9  0.750  0.141  0.458- 175 0.98
  10  0.915  0.249  0.509- 180 0.97
  11  0.583  0.304  0.306- 185 0.97
  12  0.891  0.335  0.616-  91 0.98
  13  0.588  0.359  0.615- 136 0.97
  14  0.593  0.871  0.578- 178 0.99
  15  0.034  0.338  0.652- 184 0.97
  16  0.935  0.420  0.454- 173 0.98
  17  0.746  0.530  0.422-  87 1.00
  18  0.798  0.382  0.635- 165 0.97
  19  0.591  0.569  0.378-  99 0.99
  20  0.718  0.646  0.383- 122 0.99
  21  0.841  0.542  0.420- 128 0.98
  22  0.005  0.604  0.358- 133 0.97
  23  0.828  0.712  0.468- 174 0.99
  24  0.876  0.599  0.722-  53 0.97
  25  0.520  0.986  0.422- 135 0.99
  26  0.223  0.980  0.393- 176 1.00
  27  0.216  0.238  0.319- 191 0.99
  28  0.158  0.330  0.279- 182 0.97
  29  0.342  0.156  0.331- 183 0.98
  30  0.223  0.046  0.323- 190 0.97
  31  0.511  0.826  0.547- 193 0.97
  32  0.373  0.237  0.647-  78 0.97
  33  0.244  0.093  0.599- 129 0.98
  34  0.315  0.487  0.442-  52 0.99
  35  0.409  0.439  0.406- 141 0.98
  36  0.398  0.793  0.389- 179 0.97
  37  0.244  0.655  0.294- 187 0.97
  38  0.312  0.418  0.369- 188 0.98
  39  0.405  0.584  0.339- 189 0.97
  40  0.139  0.488  0.352- 181 0.98
  41  0.593  0.698  0.352-  82 0.97
  42  0.469  0.861  0.444- 192 0.99
  43  0.122  0.323  0.612- 101 0.97
  44  0.072  0.666  0.646- 132 0.97
  45  0.240  0.387  0.683- 177 0.97
  46  0.246  0.816  0.669- 186 0.97
  47  0.557  0.462  0.806-   2 1.09
  48  0.579  0.567  0.715-   1 1.10
  49  0.582  0.468  0.731-   1 1.18
  50  0.616  0.532  0.798-   2 1.09
  51  0.369  0.648  0.439- 224 1.66 259 1.68
  52  0.347  0.504  0.420-  34 0.99 259 1.67
  53  0.861  0.566  0.697-  24 0.97 230 1.64
  54  0.349  0.959  0.530- 235 1.68 268 1.70
  55  0.033  0.933  0.529- 250 1.63 261 1.66
  56  0.636  0.079  0.489- 228 1.60 217 1.65
  57  0.069  0.052  0.395- 216 1.64 208 1.65
  58  0.452  0.130  0.421- 233 1.65 214 1.65
  59  0.806  0.214  0.483- 232 1.67 229 1.69
  60  0.973  0.182  0.599- 210 1.63 240 1.65
  61  0.275  0.299  0.449- 256 1.65 266 1.66
  62  0.556  0.775  0.442- 237 1.51 264 1.66
  63  0.392  0.974  0.619- 254 1.65 268 1.66
  64  0.178  0.350  0.405- 256 1.66 231 1.67
  65  0.866  0.684  0.637- 234 1.64 230 1.65
  66  0.866  0.967  0.467- 226 1.60 241 1.65
  67  0.301  0.761  0.458- 224 1.65 238 1.67
  68  0.422  0.261  0.380- 233 1.67 253 1.67
  69  0.811  0.465  0.520- 260 1.63 207 1.64
  70  0.984  0.073  0.521- 250 1.68 210 1.69
  71  0.514  0.461  0.629- 269 1.66 270 1.99
  72  0.035  0.920  0.429- 261 1.64 208 1.65
  73  0.963  0.303  0.351-   4 0.98 209 1.65
  74  0.070  0.336  0.376- 209 1.64 231 1.65
  75  0.208  0.729  0.395- 238 1.66 248 1.67
  76  0.039  0.419  0.499- 263 1.64 236 1.65
  77  0.240  0.286  0.588- 244 1.63 221 1.63
  78  0.398  0.195  0.645-  32 0.97 215 1.64
  79  0.455  0.563  0.582- 246 1.68 269 1.68
  80  0.910  0.749  0.558- 234 1.64 213 1.66
  81  0.869  0.108  0.442- 241 1.64 229 1.65
  82  0.573  0.667  0.376-  41 0.97 237 1.68
  83  0.142  0.159  0.376- 262 1.65 216 1.65
  84  0.351  0.765  0.607- 206 1.62 247 1.64
  85  0.911  0.845  0.483- 226 1.62 213 1.66
  86  0.061  0.537  0.442- 263 1.66 205 1.67
  87  0.708  0.555  0.420-  17 1.00 219 1.67
  88  0.075  0.817  0.483- 261 1.50 243 1.65
  89  0.700  0.828  0.433- 218 1.53 251 1.65
  90  0.730  0.049  0.543- 217 1.64 252 1.64
  91  0.919  0.302  0.632-  12 0.98 240 1.63
  92  0.735  0.853  0.613- 225 1.66 222 1.68
  93  0.625  0.527  0.486- 227 1.58 219 1.68
  94  0.557  0.630  0.467- 237 1.52 227 1.63
  95  0.425  0.247  0.555- 215 1.68 258 1.68
  96  0.978  0.728  0.477- 243 1.65 213 1.65
  97  0.654  0.594  0.633- 265 1.65 211 1.67
  98  0.397  0.747  0.515- 224 1.65 206 1.66
  99  0.603  0.518  0.386-  19 0.99 219 1.65
 100  0.719  0.631  0.557- 249 1.63 265 1.64
 101  0.147  0.364  0.620-  43 0.97 221 1.64
 102  0.066  0.549  0.542- 263 1.63 267 1.64
 103  0.819  0.885  0.537- 226 1.65 225 1.67
 104  0.828  0.355  0.452- 232 1.65 207 1.65
 105  0.527  0.298  0.532- 258 1.62 239 1.63
 106  0.737  0.499  0.595- 265 1.65 260 1.66
 107  0.557  0.172  0.395- 245 1.59 214 1.64
 108  0.806  0.256  0.383-   5 0.97 232 1.67
 109  0.237  0.953  0.508- 235 1.58 220 1.67
 110  0.693  0.777  0.542- 249 1.63 222 1.64
 111  0.924  0.950  0.553- 250 1.65 226 1.66
 112  0.526  0.318  0.399- 245 1.45 253 1.66
 113  0.469  0.991  0.546- 254 1.69 255 1.70
 114  0.838  0.095  0.540- 229 1.66 252 1.66
 115  0.538  0.116  0.486- 228 1.61 214 1.67
 116  0.350  0.187  0.440- 266 1.63 233 1.65
 117  0.012  0.962  0.335-   6 0.97 208 1.65
 118  0.452  0.595  0.675- 246 1.66 270 1.95
 119  0.655  0.925  0.379-   7 0.98 218 1.66
 120  0.076  0.686  0.436- 205 1.65 243 1.66
 121  0.453  0.405  0.553- 269 1.68 258 1.70
 122  0.719  0.700  0.380-  20 0.99 251 1.65
 123  0.452  0.706  0.599- 206 1.63 246 1.63
 124  0.753  0.709  0.476- 249 1.63 251 1.69
 125  0.779  0.121  0.621-   3 0.97 252 1.64
 126  0.993  0.308  0.448- 236 1.66 209 1.68
 127  0.534  0.508  0.532- 269 1.64 227 1.65
 128  0.817  0.499  0.423-  21 0.98 207 1.69
 129  0.236  0.145  0.605-  33 0.98 244 1.62
 130  0.204  0.831  0.471- 220 1.50 238 1.63
 131  0.240  0.559  0.523- 223 1.65 212 1.66
 132  0.061  0.625  0.624-  44 0.97 267 1.63
 133  0.046  0.602  0.354-  22 0.97 205 1.65
 134  0.801  0.979  0.606- 225 1.66 252 1.69
 135  0.538  0.028  0.405-  25 0.99 214 1.66
 136  0.606  0.313  0.605-  13 0.97 239 1.64
 137  0.862  0.004  0.369-   8 0.97 241 1.66
 138  0.095  0.149  0.467- 242 1.62 216 1.65
 139  0.171  0.204  0.531- 242 1.61 244 1.63
 140  0.641  0.704  0.455- 237 1.65 251 1.66
 141  0.437  0.410  0.386-  35 0.98 253 1.66
 142  0.574  0.059  0.571- 255 1.62 228 1.65
 143  0.151  0.593  0.389- 248 1.68 205 1.68
 144  0.268  0.602  0.392- 259 1.65 248 1.67
 145  0.440  0.322  0.470- 258 1.65 253 1.69
 146  0.238  0.159  0.430- 262 1.65 266 1.67
 147  0.073  0.150  0.563- 242 1.64 210 1.64
 148  0.845  0.544  0.600- 230 1.66 260 1.66
 149  0.621  0.280  0.411- 257 1.65 245 1.66
 150  0.603  0.892  0.467- 264 1.29 218 1.67
 151  0.031  0.195  0.389- 209 1.66 216 1.66
 152  0.608  0.195  0.547- 228 1.62 239 1.64
 153  0.133  0.938  0.479- 261 1.65 220 1.66
 154  0.080  0.280  0.512- 236 1.64 242 1.65
 155  0.372  0.105  0.568- 268 1.63 215 1.69
 156  0.067  0.697  0.536- 243 1.63 267 1.63
 157  0.666  0.415  0.430- 219 1.65 257 1.65
 158  0.799  0.730  0.564- 249 1.61 234 1.63
 159  0.704  0.957  0.470- 217 1.65 218 1.66
 160  0.597  0.634  0.553- 227 1.63 211 1.63
 161  0.723  0.294  0.452- 232 1.63 257 1.64
 162  0.978  0.314  0.547- 236 1.64 240 1.67
 163  0.158  0.630  0.571- 223 1.63 267 1.65
 164  0.633  0.327  0.508- 239 1.63 257 1.65
 165  0.820  0.396  0.606-  18 0.97 260 1.65
 166  0.959  0.027  0.417- 241 1.64 208 1.65
 167  0.282  0.195  0.519- 266 1.63 244 1.65
 168  0.249  0.443  0.461- 212 1.66 256 1.71
 169  0.273  0.850  0.568- 235 1.64 247 1.65
 170  0.204  0.686  0.487- 223 1.63 238 1.66
 171  0.147  0.476  0.493- 212 1.63 263 1.65
 172  0.225  0.423  0.557- 212 1.61 221 1.64
 173  0.911  0.453  0.474-  16 0.98 207 1.65
 174  0.870  0.705  0.464-  23 0.99 213 1.65
 175  0.738  0.093  0.445-   9 0.98 217 1.66
 176  0.222  0.930  0.408-  26 1.00 220 1.64
 177  0.252  0.402  0.650-  45 0.97 221 1.65
 178  0.630  0.883  0.593-  14 0.99 222 1.62
 179  0.410  0.789  0.423-  36 0.97 224 1.68
 180  0.918  0.196  0.508-  10 0.97 229 1.65
 181  0.133  0.444  0.332-  40 0.98 231 1.65
 182  0.155  0.304  0.311-  28 0.97 231 1.69
 183  0.373  0.131  0.348-  29 0.98 233 1.66
 184  0.035  0.292  0.633-  15 0.97 240 1.66
 185  0.573  0.257  0.320-  11 0.97 245 1.66
 186  0.245  0.771  0.649-  46 0.97 247 1.64
 187  0.207  0.648  0.310-  37 0.97 248 1.65
 188  0.275  0.392  0.367-  38 0.98 256 1.66
 189  0.365  0.598  0.342-  39 0.97 259 1.67
 190  0.226  0.056  0.358-  30 0.97 262 1.69
 191  0.241  0.196  0.329-  27 0.99 262 1.66
 192  0.501  0.892  0.455-  42 0.99 264 1.60
 193  0.550  0.828  0.534-  31 0.97 264 1.67
 194  0.545  0.646  0.635- 211 1.65 246 1.68
 195  0.478  0.123  0.596- 255 1.65 215 1.65
 196  0.263  0.694  0.568- 247 1.65 223 1.65
 197  0.442  0.848  0.581- 254 1.65 206 1.68
 198  0.765  0.617  0.649- 265 1.65 230 1.66
 199  0.845  0.832  0.623- 234 1.66 225 1.68
 200  0.640  0.739  0.621- 211 1.67 222 1.71
 201  0.008  0.033  0.603- 250 1.69 210 1.69
 202  0.285  0.002  0.593- 268 1.69 235 1.70
 203  0.503  0.972  0.629- 254 1.69 255 1.70
 204  0.451  0.437  0.732- 270 1.72
 205  0.083  0.606  0.406- 133 1.65 120 1.65  86 1.67 143 1.68 263 3.13
 206  0.409  0.766  0.574-  84 1.62 123 1.63  98 1.66 197 1.68 247 3.05
 207  0.842  0.441  0.468-  69 1.64 104 1.65 173 1.65 128 1.69
 208  0.017  0.990  0.394-  57 1.65 166 1.65  72 1.65 117 1.65 261 3.11 216 3.13
 209  0.015  0.284  0.391-  74 1.64  73 1.65 151 1.66 126 1.68 236 3.11 216 3.11
 210  0.009  0.115  0.573-  60 1.63 147 1.64  70 1.69 201 1.69 250 2.39 242 3.05 240 3.07
 211  0.609  0.658  0.611- 160 1.63 194 1.65  97 1.67 200 1.67 265 2.87
 212  0.214  0.476  0.510- 172 1.61 171 1.63 168 1.66 131 1.66 223 3.10 256 3.14
 213  0.915  0.756  0.496-  96 1.65 174 1.65  80 1.66  85 1.66 226 2.99 234 3.03
 214  0.521  0.110  0.426- 107 1.64  58 1.65 135 1.66 115 1.67 245 3.08 228 3.12
 215  0.418  0.170  0.589-  78 1.64 195 1.65  95 1.68 155 1.69 268 3.13 255 3.14
 216  0.083  0.139  0.407-  57 1.64 138 1.65  83 1.65 151 1.66 209 3.11 208 3.13 262 3.14
 217  0.702  0.045  0.487-  90 1.64 159 1.65  56 1.65 175 1.66 228 3.09 218 3.10 252 3.15
 218  0.665  0.898  0.437-  89 1.53 159 1.66 119 1.66 150 1.67 264 2.83 251 3.06 217 3.10
 219  0.650  0.504  0.430-  99 1.65 157 1.65  87 1.67  93 1.68 227 3.07
 220  0.198  0.912  0.464- 130 1.50 176 1.64 153 1.66 109 1.67 238 3.01 235 3.06 261 3.07
 221  0.214  0.366  0.604-  77 1.63 172 1.64 101 1.64 177 1.65
 222  0.674  0.814  0.595- 178 1.62 110 1.64  92 1.68 200 1.71 249 2.90
 223  0.217  0.642  0.539- 170 1.63 163 1.63 196 1.65 131 1.65 238 3.09 212 3.10 267 3.12
 224  0.369  0.735  0.459-  98 1.65  67 1.65  51 1.66 179 1.68
 225  0.797  0.889  0.596- 134 1.66  92 1.66 103 1.67 199 1.68 234 2.86 226 2.99 252 3.15
 226  0.880  0.912  0.512-  66 1.60  85 1.62 103 1.65 111 1.66 213 2.99 225 2.99 250 3.05 241 3.13

 227  0.576  0.575  0.512-  93 1.58 160 1.63  94 1.63 127 1.65 237 3.00 219 3.07
 228  0.590  0.116  0.525-  56 1.60 115 1.61 152 1.62 142 1.65 255 2.85 217 3.09 239 3.11 214 3.12

 229  0.858  0.152  0.495- 180 1.65  81 1.65 114 1.66  59 1.69 241 3.07 232 3.15
 230  0.835  0.604  0.646-  53 1.64  65 1.65 148 1.66 198 1.66 265 2.93 234 3.01 260 3.01
 231  0.134  0.360  0.357- 181 1.65  74 1.65  64 1.67 182 1.69 256 3.11
 232  0.791  0.280  0.442- 161 1.63 104 1.65 108 1.67  59 1.67 229 3.15
 233  0.399  0.177  0.396-  58 1.65 116 1.65 183 1.66  68 1.67 253 3.07
 234  0.856  0.750  0.597- 158 1.63  80 1.64  65 1.64 199 1.66 225 2.86 230 3.01 213 3.03
 235  0.283  0.935  0.549- 109 1.58 169 1.64  54 1.68 202 1.70 268 2.38 220 3.06
 236  0.023  0.330  0.502- 154 1.64 162 1.64  76 1.65 126 1.66 240 3.11 209 3.11 242 3.13
 237  0.575  0.695  0.436-  62 1.51  94 1.52 140 1.65  82 1.68 227 3.00 264 3.06 251 3.10
 238  0.230  0.753  0.452- 130 1.63 170 1.66  75 1.66  67 1.67 248 2.97 220 3.01 223 3.09
 239  0.594  0.284  0.548- 164 1.63 105 1.63 152 1.64 136 1.64 228 3.11
 240  0.975  0.272  0.603-  91 1.63  60 1.65 184 1.66 162 1.67 210 3.07 236 3.11
 241  0.889  0.025  0.424-  81 1.64 166 1.64  66 1.65 137 1.66 229 3.07 226 3.13
 242  0.105  0.195  0.518- 139 1.61 138 1.62 147 1.64 154 1.65 210 3.05 236 3.13
 243  0.048  0.733  0.483- 156 1.63  96 1.65  88 1.65 120 1.66 261 3.05 267 3.14
 244  0.232  0.206  0.561- 129 1.62  77 1.63 139 1.63 167 1.65 266 3.03
 245  0.561  0.258  0.381- 112 1.45 107 1.59 149 1.66 185 1.66 253 2.87 214 3.08
 246  0.476  0.628  0.622- 123 1.63 118 1.66 194 1.68  79 1.68 269 2.99 270 3.05
 247  0.281  0.770  0.598- 186 1.64  84 1.64 196 1.65 169 1.65 206 3.05
 248  0.209  0.643  0.372- 187 1.65 144 1.67  75 1.67 143 1.68 238 2.97
 249  0.740  0.711  0.536- 158 1.61 124 1.63 100 1.63 110 1.63 222 2.90 251 2.90 265 3.07
 250  0.987  0.991  0.550-  55 1.63 111 1.65  70 1.68 201 1.69 210 2.39 226 3.05
 251  0.703  0.737  0.434-  89 1.65 122 1.65 140 1.66 124 1.69 249 2.90 218 3.06 237 3.10
 252  0.788  0.059  0.577-  90 1.64 125 1.64 114 1.66 134 1.69 225 3.15 217 3.15
 253  0.456  0.328  0.409- 141 1.66 112 1.66  68 1.67 145 1.69 245 2.87 233 3.07
 254  0.450  0.937  0.594-  63 1.65 197 1.65 113 1.69 203 1.69 255 2.36 268 2.74
 255  0.509  0.041  0.586- 142 1.62 195 1.65 113 1.70 203 1.70 254 2.36 228 2.85 215 3.14
 256  0.244  0.370  0.421-  61 1.65  64 1.66 188 1.66 168 1.71 231 3.11 212 3.14
 257  0.659  0.330  0.450- 161 1.64 149 1.65 157 1.65 164 1.65
 258  0.460  0.318  0.529- 105 1.62 145 1.65  95 1.68 121 1.70
 259  0.337  0.590  0.399- 144 1.65 189 1.67  52 1.67  51 1.68
 260  0.803  0.476  0.580-  69 1.63 165 1.65 148 1.66 106 1.66 265 2.91 230 3.01
 261  0.069  0.899  0.481-  88 1.50  72 1.64 153 1.65  55 1.66 243 3.05 220 3.07 208 3.11
 262  0.212  0.144  0.374-  83 1.65 146 1.65 191 1.66 190 1.69 266 3.12 216 3.14
 263  0.078  0.494  0.495- 102 1.63  76 1.64 171 1.65  86 1.66 267 3.10 205 3.13
 264  0.558  0.852  0.475- 150 1.29 192 1.60  62 1.66 193 1.67 218 2.83 237 3.06
 265  0.718  0.585  0.609- 100 1.64  97 1.65 198 1.65 106 1.65 211 2.87 260 2.91 230 2.93 249 3.07

 266  0.287  0.210  0.459- 167 1.63 116 1.63  61 1.66 146 1.67 244 3.03 262 3.12
 267  0.088  0.626  0.568- 156 1.63 132 1.63 102 1.64 163 1.65 263 3.10 223 3.12 243 3.14
 268  0.353  0.020  0.578- 155 1.63  63 1.66 202 1.69  54 1.70 235 2.38 254 2.74 215 3.13
 269  0.487  0.481  0.573- 127 1.64  71 1.66 121 1.68  79 1.68 246 2.99 270 3.26
 270  0.485  0.499  0.694- 204 1.72 118 1.95  71 1.99   1 2.02 246 3.05 269 3.26

  LATTYP: Found a simple orthorhombic cell.
 ALAT       =    18.1212369514
 B/A-ratio  =     1.2919258579
 C/A-ratio  =     1.4835282260
  
  Lattice vectors:
  
 A1 = (   0.0000000000, -18.1212369514,   0.0000000000)
 A2 = ( -23.4112945954,   0.0000000000,   0.0000000000)
 A3 = (   0.0000000000,   0.0000000000, -26.8833665073)


Analysis of symmetry for initial positions (statically):
=====================================================================
 Subroutine PRICEL returns:
 Original cell was already a primitive cell.
 

 Routine SETGRP: Setting up the symmetry group for a 
 simple orthorhombic supercell.


 Subroutine GETGRP returns: Found  1 space group operations
 (whereof  1 operations were pure point group operations)
 out of a pool of  8 trial point group operations.


The static configuration has the point symmetry C_1 .


Analysis of symmetry for dynamics (positions and initial velocities):
=====================================================================
 Subroutine PRICEL returns:
 Original cell was already a primitive cell.
 

 Routine SETGRP: Setting up the symmetry group for a 
 simple orthorhombic supercell.


 Subroutine GETGRP returns: Found  1 space group operations
 (whereof  1 operations were pure point group operations)
 out of a pool of  8 trial point group operations.


The dynamic configuration has the point symmetry C_1 .


Analysis of constrained symmetry for selective dynamics:
=====================================================================
 Subroutine PRICEL returns:
 Original cell was already a primitive cell.
 

 Routine SETGRP: Setting up the symmetry group for a 
 simple orthorhombic supercell.


 Subroutine GETGRP returns: Found  1 space group operations
 (whereof  1 operations were pure point group operations)
 out of a pool of  8 trial point group operations.


The constrained configuration has the point symmetry C_1 .


 Subroutine INISYM returns: Found  1 space group operations
 (whereof  1 operations are pure point group operations),
 and found     1 'primitive' translations



 KPOINTS: KPOINTS created by Atomic Simulation Env

Automatic generation of k-mesh.
Space group operators:
 irot       det(A)        alpha          n_x          n_y          n_z        tau_x        tau_y        tau_z
    1     1.000000     0.000001     1.000000     0.000000     0.000000     0.000000     0.000000     0.000000
 
 Subroutine IBZKPT returns following result:
 ===========================================
 
 Found      5 irreducible k-points:
 
 Following reciprocal coordinates:
            Coordinates               Weight
  0.000000  0.000000  0.000000      1.000000
  0.333333  0.000000  0.000000      2.000000
  0.000000  0.333333  0.000000      2.000000
  0.333333  0.333333  0.000000      2.000000
 -0.333333  0.333333  0.000000      2.000000
 
 Following cartesian coordinates:
            Coordinates               Weight
  0.000000  0.000000  0.000000      1.000000
  0.014238  0.000000  0.000000      2.000000
  0.000000  0.018395  0.000000      2.000000
  0.014238  0.018395  0.000000      2.000000
 -0.014238  0.018395  0.000000      2.000000
 


--------------------------------------------------------------------------------------------------------




 Dimension of arrays:
   k-points           NKPTS =      5   k-points in BZ     NKDIM =      5   number of bands    NBANDS=    768
   number of dos      NEDOS =    301   number of ions     NIONS =    270
   non local maximal  LDIM  =      6   non local SUM 2l+1 LMDIM =     18
   total plane-waves  NPLWV = ******
   max r-space proj   IRMAX =   2748   max aug-charges    IRDMAX=   9808
   dimension x,y,z NGX =   128 NGY =  100 NGZ =  150
   dimension x,y,z NGXF=   256 NGYF=  200 NGZF=  300
   support grid    NGXF=   256 NGYF=  200 NGZF=  300
   ions per type =               2  48 154  65   1
   NGX,Y,Z   is equivalent  to a cutoff of   9.09,  9.17,  9.28 a.u.
   NGXF,Y,Z  is equivalent  to a cutoff of  18.18, 18.35, 18.55 a.u.

 SYSTEM =  unknown system                          
 POSCAR =   C  H  O Si  W                          

 Startparameter for this run:
   NWRITE =      2    write-flag & timer
   PREC   = normal    normal or accurate (medium, high low for compatibility)
   ISTART =      0    job   : 0-new  1-cont  2-samecut
   ICHARG =      2    charge: 1-file 2-atom 10-const
   ISPIN  =      1    spin polarized calculation?
   LNONCOLLINEAR =      F non collinear calculations
   LSORBIT =      F    spin-orbit coupling
   INIWAV =      1    electr: 0-lowe 1-rand  2-diag
   LASPH  =      T    aspherical Exc in radial PAW
   METAGGA=      F    non-selfconsistent MetaGGA calc.

 Electronic Relaxation 1
   ENCUT  =  500.0 eV  36.75 Ry    6.06 a.u.  42.68 33.04 49.01*2*pi/ulx,y,z
   ENINI  =  500.0     initial cutoff
   ENAUG  =  644.9 eV  augmentation charge cutoff
   NELM   =     60;   NELMIN=  2; NELMDL=  0     # of ELM steps 
   EDIFF  = 0.1E-06   stopping-criterion for ELM
   LREAL  =      T    real-space projection
   NLSPLINE    = F    spline interpolate recip. space projectors
   LCOMPAT=      F    compatible to vasp.4.4
   GGA_COMPAT  = T    GGA compatible to vasp.4.4-vasp.4.6
   LMAXPAW     = -100 max onsite density
   LMAXMIX     =    2 max onsite mixed and CHGCAR
   VOSKOWN=      0    Vosko Wilk Nusair interpolation
   ROPT   =   -0.00050  -0.00050  -0.00050  -0.00050
   ROPT   =   -0.00050
 Ionic relaxation
   EDIFFG = -.1E+00   stopping-criterion for IOM
   NSW    =    200    number of steps for IOM
   NBLOCK =      1;   KBLOCK =    200    inner block; outer block 
   IBRION =      3    ionic relax: 0-MD 1-quasi-New 2-CG
   NFREE  =      0    steps in history (QN), initial steepest desc. (CG)
   ISIF   =      0    stress and relaxation
   IWAVPR =     11    prediction:  0-non 1-charg 2-wave 3-comb
   ISYM   =      2    0-nonsym 1-usesym 2-fastsym
   LCORR  =      T    Harris-Foulkes like correction to forces

   POTIM  = 0.0000    time-step for ionic-motion
   TEIN   =    0.0    initial temperature
   TEBEG  =    0.0;   TEEND  =   0.0 temperature during run
   SMASS  =  -3.00    Nose mass-parameter (am)
   estimated Nose-frequenzy (Omega)   =  0.10E-29 period in steps =  0.00 mass=  -0.125E-25a.u.
   SCALEE = 1.0000    scale energy and forces
   NPACO  =    256;   APACO  = 16.0  distance and # of slots for P.C.
   PSTRESS=    0.0 pullay stress

  Mass of Ions in am
   POMASS =  12.01  1.00 16.00 28.09183.85
  Ionic Valenz
   ZVAL   =   4.00  1.00  6.00  4.00  6.00
  Atomic Wigner-Seitz radii
   RWIGS  =  -1.00 -1.00 -1.00 -1.00 -1.00
  virtual crystal weights 
   VCA    =   1.00  1.00  1.00  1.00  1.00
   NELECT =    1246.0000    total number of electrons
   NUPDOWN=      -1.0000    fix difference up-down

 DOS related values:
   EMIN   =  10.00;   EMAX   =-10.00  energy-range for DOS
   EFERMI =   0.00
   ISMEAR =     0;   SIGMA  =   0.20  broadening in eV -4-tet -1-fermi 0-gaus

 Electronic relaxation 2 (details)
   IALGO  =     68    algorithm
   LDIAG  =      T    sub-space diagonalisation (order eigenvalues)
   LSUBROT=      F    optimize rotation matrix (better conditioning)
   TURBO    =      0    0=normal 1=particle mesh
   IRESTART =      0    0=no restart 2=restart with 2 vectors
   NREBOOT  =      0    no. of reboots
   NMIN     =      0    reboot dimension
   EREF     =   0.00    reference energy to select bands
   IMIX   =      4    mixing-type and parameters
     AMIX     =   0.40;   BMIX     =  1.00
     AMIX_MAG =   1.60;   BMIX_MAG =  1.00
     AMIN     =   0.10
     WC   =   100.;   INIMIX=   1;  MIXPRE=   1;  MAXMIX= -45

 Intra band minimization:
   WEIMIN = 0.0010     energy-eigenvalue tresh-hold
   EBREAK =  0.33E-10  absolut break condition
   DEPER  =   0.30     relativ break condition  

   TIME   =   0.40     timestep for ELM

  volume/ion in A,a.u.               =      42.24       285.06
  Fermi-wavevector in a.u.,A,eV,Ry     =   0.782616  1.478929  8.333395  0.612487
  Thomas-Fermi vector in A             =   1.886376

 Write flags
   LWAVE        =      F    write WAVECAR
   LDOWNSAMPLE  =      F    k-point downsampling of WAVECAR
   LCHARG       =      F    write CHGCAR
   LVTOT        =      F    write LOCPOT, total local potential
   LVHAR        =      F    write LOCPOT, Hartree potential only
   LELF         =      F    write electronic localiz. function (ELF)
   LORBIT       =      0    0 simple, 1 ext, 2 COOP (PROOUT), +10 PAW based schemes


 Dipole corrections
   LMONO  =      F    monopole corrections only (constant potential shift)
   LDIPOL =      T    correct potential (dipole corrections)
   IDIPOL =      3    1-x, 2-y, 3-z, 4-all directions 
   EPSILON=  1.0000000 bulk dielectric constant

 Exchange correlation treatment:
   GGA     =    RP    GGA type
   LEXCH   =     9    internal setting for exchange type
   VOSKOWN=      0    Vosko Wilk Nusair interpolation
   LHFCALC =     F    Hartree Fock is set to
   LHFONE  =     F    Hartree Fock one center treatment
   AEXX    =    0.0000 exact exchange contribution

 Linear response parameters
   LEPSILON=     F    determine dielectric tensor
   LRPA    =     F    only Hartree local field effects (RPA)
   LNABLA  =     F    use nabla operator in PAW spheres
   LVEL    =     F    velocity operator in full k-point grid
   LINTERFAST=   F  fast interpolation
   KINTER  =     0    interpolate to denser k-point grid
   CSHIFT  =0.1000    complex shift for real part using Kramers Kronig
   OMEGAMAX=  -1.0    maximum frequency
   DEG_THRESHOLD= 0.2000000E-02 threshold for treating states as degnerate
   RTIME   =   -0.100 relaxation time in fs
  (WPLASMAI=    0.000 imaginary part of plasma frequency in eV, 0.658/RTIME)
   DFIELD  = 0.0000000 0.0000000 0.0000000 field for delta impulse in time

 Orbital magnetization related:
   ORBITALMAG=     F  switch on orbital magnetization
   LCHIMAG   =     F  perturbation theory with respect to B field
   DQ        =  0.001000  dq finite difference perturbation B field
   LLRAUG    =     F  two centre corrections for induced B field



--------------------------------------------------------------------------------------------------------


 quickmin algorithm: (dynamic with friction)
   using selective dynamics as specified on POSCAR
 charge density and potential will be updated during run
 non-spin polarized calculation
 RMM-DIIS sequential band-by-band and
  variant of blocked Davidson during initial phase
 perform sub-space diagonalisation
    before iterative eigenvector-optimisation
 modified Broyden-mixing scheme, WC =      100.0
 initial mixing is a Kerker type mixing with AMIX =  0.4000 and BMIX =      1.0000
 Hartree-type preconditioning will be used
 using additional bands          145
 real space projection scheme for non local part
 use partial core corrections
 calculate Harris-corrections to forces   (improved forces if not selfconsistent)
 use gradient corrections 
 use of overlap-Matrix (Vanderbilt PP)
 Gauss-broadening in eV      SIGMA  =   0.20


--------------------------------------------------------------------------------------------------------


  energy-cutoff  :      500.00
  volume of cell :    11405.04
      direct lattice vectors                 reciprocal lattice vectors
    23.411294595  0.000000000  0.000000000     0.042714426  0.000000000  0.000000000
     0.000000000 18.121236951  0.000000000     0.000000000  0.055183871  0.000000000
     0.000000000  0.000000000 26.883366507     0.000000000  0.000000000  0.037197722

  length of vectors
    23.411294595 18.121236951 26.883366507     0.042714426  0.055183871  0.037197722



 k-points in units of 2pi/SCALE and weight: KPOINTS created by Atomic Simulation Env
   0.00000000  0.00000000  0.00000000       0.111
   0.01423814  0.00000000  0.00000000       0.222
   0.00000000  0.01839462  0.00000000       0.222
   0.01423814  0.01839462  0.00000000       0.222
  -0.01423814  0.01839462  0.00000000       0.222

 k-points in reciprocal lattice and weights: KPOINTS created by Atomic Simulation Env
   0.00000000  0.00000000  0.00000000       0.111
   0.33333333  0.00000000  0.00000000       0.222
   0.00000000  0.33333333  0.00000000       0.222
   0.33333333  0.33333333  0.00000000       0.222
  -0.33333333  0.33333333  0.00000000       0.222

 position of ions in fractional coordinates (direct lattice) 
   0.55537536  0.52271149  0.73435006
   0.57700946  0.50563908  0.78390838
   0.76055581  0.10370667  0.65097670
   0.92642768  0.27866896  0.35633493
   0.79333970  0.20727890  0.37345652
   0.97453911  0.94360860  0.32530279
   0.62573266  0.96347285  0.37523120
   0.82053840  0.99500666  0.36899263
   0.74999307  0.14117876  0.45803819
   0.91545128  0.24946666  0.50904100
   0.58349286  0.30426355  0.30592717
   0.89145685  0.33471251  0.61602547
   0.58836284  0.35915345  0.61460060
   0.59340551  0.87086549  0.57798441
   0.03378431  0.33769023  0.65219760
   0.93527051  0.41951423  0.45410146
   0.74613838  0.53031199  0.42248819
   0.79799663  0.38230623  0.63487603
   0.59110202  0.56868283  0.37803474
   0.71843379  0.64593279  0.38346059
   0.84115291  0.54242660  0.41959617
   0.00476455  0.60379815  0.35777830
   0.82835870  0.71235667  0.46794226
   0.87643969  0.59883789  0.72163885
   0.51999031  0.98556476  0.42170307
   0.22309457  0.98015484  0.39320502
   0.21637369  0.23785146  0.31923033
   0.15750105  0.32980623  0.27898292
   0.34154688  0.15558571  0.33077276
   0.22271586  0.04575893  0.32273843
   0.51111509  0.82590596  0.54672166
   0.37304523  0.23744908  0.64727534
   0.24362068  0.09310503  0.59851609
   0.31538097  0.48713646  0.44243467
   0.40895618  0.43873486  0.40569060
   0.39849950  0.79311361  0.38878680
   0.24420236  0.65543008  0.29432688
   0.31174138  0.41847571  0.36925764
   0.40547429  0.58427965  0.33881989
   0.13935762  0.48797365  0.35192946
   0.59326935  0.69798713  0.35239799
   0.46900683  0.86142747  0.44382838
   0.12171362  0.32299546  0.61165695
   0.07217297  0.66550564  0.64551656
   0.24017591  0.38700926  0.68282586
   0.24609163  0.81556418  0.66917277
   0.55689857  0.46191704  0.80563722
   0.57923379  0.56686180  0.71523805
   0.58236192  0.46776405  0.73088062
   0.61588993  0.53161422  0.79786013
   0.36894173  0.64835510  0.43900002
   0.34681565  0.50403387  0.42038813
   0.86069552  0.56601184  0.69672066
   0.34907135  0.95871012  0.53022672
   0.03345516  0.93254624  0.52851878
   0.63635548  0.07886855  0.48937667
   0.06864615  0.05226542  0.39511073
   0.45189954  0.12956232  0.42059728
   0.80588415  0.21365018  0.48316661
   0.97311696  0.18155565  0.59878106
   0.27476529  0.29917287  0.44851223
   0.55635417  0.77509129  0.44175101
   0.39185523  0.97352983  0.61943088
   0.17751724  0.34996845  0.40527312
   0.86642756  0.68411654  0.63733545
   0.86569601  0.96717693  0.46703846
   0.30104714  0.76093683  0.45792526
   0.42161095  0.26125222  0.37959630
   0.81120717  0.46537695  0.52015397
   0.98359641  0.07275959  0.52124281
   0.51416391  0.46100470  0.62893369
   0.03453641  0.91994776  0.42940526
   0.96303654  0.30319531  0.35125762
   0.06962669  0.33610577  0.37637178
   0.20829566  0.72864429  0.39536010
   0.03890126  0.41910192  0.49910875
   0.23973338  0.28585805  0.58788482
   0.39780422  0.19471901  0.64472411
   0.45535805  0.56280441  0.58164015
   0.90980642  0.74918052  0.55752229
   0.86912727  0.10804334  0.44227833
   0.57257679  0.66733185  0.37613173
   0.14242656  0.15912550  0.37597224
   0.35062747  0.76530084  0.60679290
   0.91099605  0.84504757  0.48317962
   0.06133801  0.53687171  0.44225348
   0.70833903  0.55516655  0.41995768
   0.07548726  0.81680680  0.48299416
   0.70046477  0.82755571  0.43263529
   0.73019166  0.04902012  0.54300701
   0.91894235  0.30203926  0.63208617
   0.73499647  0.85306768  0.61300359
   0.62512195  0.52739400  0.48637871
   0.55657330  0.62970304  0.46724942
   0.42513571  0.24749206  0.55531564
   0.97829009  0.72824363  0.47679564
   0.65403519  0.59427341  0.63343576
   0.39663795  0.74701062  0.51517456
   0.60269007  0.51766545  0.38567099
   0.71949819  0.63136366  0.55700684
   0.14677433  0.36398527  0.61993105
   0.06630156  0.54854813  0.54193866
   0.81891411  0.88469934  0.53668786
   0.82821553  0.35538514  0.45190334
   0.52738385  0.29794596  0.53222180
   0.73678523  0.49937231  0.59535875
   0.55743394  0.17243111  0.39490854
   0.80596408  0.25641257  0.38329286
   0.23744622  0.95325075  0.50791956
   0.69290785  0.77652175  0.54150731
   0.92387719  0.94979166  0.55297129
   0.52573722  0.31778112  0.39855594
   0.46853420  0.99067312  0.54606749
   0.83773916  0.09479187  0.53977553
   0.53790325  0.11641749  0.48623709
   0.35019344  0.18660873  0.43963639
   0.01176032  0.96241390  0.33524376
   0.45231551  0.59454131  0.67500983
   0.65496522  0.92539750  0.37922825
   0.07629334  0.68602626  0.43588102
   0.45335547  0.40472950  0.55311359
   0.71921944  0.70042085  0.37958300
   0.45174197  0.70578414  0.59924308
   0.75255106  0.70932458  0.47629548
   0.77857930  0.12112497  0.62071777
   0.99327462  0.30801347  0.44840298
   0.53443870  0.50768814  0.53182356
   0.81677759  0.49906173  0.42344221
   0.23576323  0.14508994  0.60534088
   0.20353331  0.83070132  0.47053363
   0.23998170  0.55872254  0.52283527
   0.06116643  0.62545392  0.62365694
   0.04607407  0.60234669  0.35417863
   0.80072549  0.97879872  0.60588060
   0.53799091  0.02769749  0.40450275
   0.60619146  0.31283837  0.60497917
   0.86154611  0.00408085  0.36920633
   0.09491131  0.14902284  0.46708233
   0.17141693  0.20410015  0.53092961
   0.64098865  0.70443872  0.45481558
   0.43678778  0.40976848  0.38641325
   0.57416656  0.05880970  0.57119950
   0.15143775  0.59340802  0.38895836
   0.26773979  0.60233753  0.39230630
   0.44025846  0.32219818  0.47032443
   0.23800967  0.15851113  0.42990119
   0.07275485  0.15030303  0.56258270
   0.84493940  0.54404554  0.59987311
   0.62117943  0.27993988  0.41090545
   0.60266699  0.89152667  0.46722346
   0.03138539  0.19528983  0.38899188
   0.60792528  0.19545387  0.54739828
   0.13279973  0.93835464  0.47948708
   0.08027479  0.28039873  0.51160030
   0.37246740  0.10508227  0.56804357
   0.06663774  0.69703773  0.53572592
   0.66648838  0.41538488  0.43001156
   0.79935898  0.72961973  0.56412709
   0.70383856  0.95720843  0.47018456
   0.59731087  0.63438723  0.55326480
   0.72284030  0.29368465  0.45166811
   0.97755214  0.31417606  0.54723391
   0.15835240  0.62991287  0.57058269
   0.63333384  0.32678308  0.50780070
   0.81958961  0.39632611  0.60555867
   0.95857820  0.02724304  0.41695300
   0.28204258  0.19508804  0.51864975
   0.24925755  0.44303289  0.46105570
   0.27323253  0.84962672  0.56807231
   0.20366815  0.68557317  0.48688872
   0.14712345  0.47606988  0.49254493
   0.22456429  0.42270699  0.55687312
   0.91141698  0.45274460  0.47371881
   0.86978818  0.70456011  0.46415352
   0.73812021  0.09283462  0.44522965
   0.22218344  0.92978119  0.40794682
   0.25181989  0.40160078  0.64968602
   0.63041091  0.88326984  0.59344060
   0.41022327  0.78906239  0.42343739
   0.91777135  0.19603829  0.50824515
   0.13254706  0.44353611  0.33227266
   0.15514768  0.30352326  0.31056042
   0.37300515  0.13090704  0.34795342
   0.03456634  0.29193125  0.63344212
   0.57268926  0.25686819  0.32009968
   0.24494734  0.77069780  0.64949915
   0.20737430  0.64840505  0.31036906
   0.27537441  0.39219130  0.36737583
   0.36535081  0.59758663  0.34222079
   0.22638085  0.05618082  0.35811888
   0.24120333  0.19607823  0.32934297
   0.50127293  0.89230162  0.45484168
   0.55008468  0.82784680  0.53436459
   0.54492999  0.64583827  0.63517602
   0.47835396  0.12251602  0.59619984
   0.26262132  0.69429483  0.56848753
   0.44234946  0.84783596  0.58137209
   0.76546977  0.61687908  0.64943192
   0.84475966  0.83169625  0.62300957
   0.63991188  0.73947107  0.62095684
   0.00813268  0.03347000  0.60298095
   0.28459214  0.00204167  0.59334644
   0.50315514  0.97224782  0.62867507
   0.45075616  0.43709421  0.73201529
   0.08322528  0.60642030  0.40641308
   0.40901818  0.76632831  0.57438498
   0.84176382  0.44145312  0.46783897
   0.01708949  0.99048204  0.39361135
   0.01470021  0.28419027  0.39108141
   0.00924495  0.11507351  0.57250034
   0.60922283  0.65762761  0.61093676
   0.21399067  0.47586009  0.50973834
   0.91506213  0.75556094  0.49625454
   0.52057854  0.11045563  0.42598659
   0.41846016  0.16978233  0.58894066
   0.08345253  0.13917208  0.40698087
   0.70189793  0.04484625  0.48732303
   0.66505935  0.89803746  0.43747644
   0.65009874  0.50402706  0.43015089
   0.19846065  0.91248223  0.46399069
   0.21431971  0.36647434  0.60361758
   0.67360659  0.81367523  0.59466328
   0.21670092  0.64159805  0.53850976
   0.36878912  0.73512773  0.45920930
   0.79743959  0.88859315  0.59570782
   0.87980367  0.91230058  0.51199324
   0.57638441  0.57457277  0.51197558
   0.58988800  0.11554064  0.52519645
   0.85812234  0.15211323  0.49517595
   0.83543396  0.60361905  0.64589360
   0.13373852  0.36031890  0.35687228
   0.79065529  0.27993925  0.44187265
   0.39917610  0.17749484  0.39600320
   0.85601131  0.75012700  0.59654021
   0.28330709  0.93469282  0.54932120
   0.02307473  0.33044751  0.50224551
   0.57455938  0.69549008  0.43556436
   0.23024095  0.75260050  0.45196954
   0.59370959  0.28391039  0.54819037
   0.97518211  0.27232010  0.60263763
   0.88890636  0.02540900  0.42420019
   0.10468021  0.19546057  0.51774940
   0.04814566  0.73303709  0.48263019
   0.23193922  0.20578519  0.56102012
   0.56140781  0.25778527  0.38122611
   0.47634236  0.62846688  0.62168272
   0.28147889  0.77047320  0.59750829
   0.20850083  0.64339984  0.37179454
   0.74039230  0.71095145  0.53581714
   0.98658574  0.99061565  0.55036845
   0.70310456  0.73681815  0.43426040
   0.78790816  0.05947686  0.57677907
   0.45631390  0.32845159  0.40928789
   0.44950809  0.93655828  0.59436275
   0.50850947  0.04142551  0.58610426
   0.24424715  0.37040632  0.42094710
   0.65852534  0.33000211  0.45034791
   0.46026277  0.31839956  0.52896256
   0.33729937  0.58994254  0.39908301
   0.80318932  0.47643658  0.57976877
   0.06920979  0.89885916  0.48050551
   0.21190758  0.14445432  0.37359659
   0.07823286  0.49398499  0.49468762
   0.55757019  0.85234010  0.47473025
   0.71831638  0.58485771  0.60948251
   0.28664212  0.21010174  0.45911077
   0.08815277  0.62554657  0.56759709
   0.35346858  0.01958412  0.57795819
   0.48740414  0.48058219  0.57320306
   0.48493645  0.49917560  0.69369086

 position of ions in cartesian coordinates  (Angst):
  13.00205616  9.47217885 19.74180180
  13.50853847  9.16280554 21.07409639
  17.80559618  1.87929312 17.50044519
  21.68887124  5.04982630  9.57948250
  18.57310935  3.75615001 10.03976840
  22.81522226 17.09935504  8.74523415
  14.64921175 17.45931981 10.08747787
  19.20986618 18.03075152  9.91976410
  17.55830880  2.55833368 12.31360861
  21.43189955  4.52064447 13.68473570
  13.66032332  5.51363181  8.22435231
  20.87015897  6.06540477 16.56083854
  13.77433585  6.50830480 16.52253318
  13.89239112 15.78115985 15.53816678
   0.79093445  6.11936466 17.53326707
  21.89589338  7.60211669 12.20777585
  17.46806539  9.60990927 11.35790489
  18.68213423  6.92786172 17.06760509
  13.83846346 10.30523625 10.16284657
  16.81946503 11.70510106 10.30871170
  19.69247867  9.82944087 11.28015755
   0.11154425 10.94156933  9.61828518
  19.39294954 12.90878407 12.57986315
  20.51858777 10.85168335 19.40008160
  12.17364643 17.85965257 11.33679820
   5.22293275 17.76161801 10.57067472
   5.06558822  4.31016263  8.58198589
   3.68730349  5.97649684  7.50000000
   7.99605454  2.81940543  8.89228530
   5.21406665  0.82920834  8.67629559
  11.96586584 14.96643767 14.69771875
   8.73347174  4.30287103 17.40094007
   5.70347550  1.68717835 16.09012748
   7.38347683  8.82751530 11.89413327
   9.57419369  7.95041833 10.90632902
   9.32938926 14.37219961 10.45189795
   5.71709332 11.87720376  7.91249741
   7.29826932  7.58329756  9.92688859
   9.49267817 10.58787004  9.10861924
   3.26254231  8.84268607  9.46104865
  13.88920341 12.64839014  9.47364424
  10.98005707 15.61013128 11.93160111
   2.84947335  5.85307724 16.44339799
   1.68966258 12.05978539 17.35365833
   5.62282901  7.01308654 18.35665777
   5.76132373 14.77903168 17.98961696
  13.03771653  8.37050817 21.65824077
  13.56061294 10.27223701 19.22800662
  13.63384636  8.47646324 19.64853159
  14.41878062  9.63350719 21.44916622
   8.63740362 11.74899635 11.80179838
   8.11940335  9.13371715 11.30144811
  20.14999640 10.25683460 18.73019679
   8.17221215 17.37301327 14.25427932
   0.78322868 16.89889136 14.20836416
  14.89790566  1.42919560 13.15609244
   1.60709516  0.94711408 10.62190669
  10.57955331  2.34782959 11.30707087
  18.86679123  3.87160553 12.98914499
  22.78192781  3.29001292 16.09725059
   6.43261122  5.42138248 12.05751853
  13.02497128 14.04561294 11.87575437
   9.17383831 17.64156480 16.65238738
   4.15590840  6.34186119 10.89510594
  20.28419085 12.39703785 17.13372258
  20.26706432 17.52644236 12.55556607
   7.04790320 13.78911669 12.31057251
   9.87045805  4.73421333 10.20482654
  18.99140994  8.43320604 13.98348992
  23.02726534  1.31849381 14.01276145
  12.03724287  8.35397532 16.90785477
   0.80854198 16.67059137 11.54385891
  22.54593219  5.49427402  9.44298747
   1.63005096  6.09065222 10.11814055
   4.87647100 13.20393591 10.62861051
   0.91072893  7.59464512 13.41772355
   5.61246867  5.18010152 15.80432306
   9.31311177  3.52854929 17.33235462
  10.66052135 10.19871202 15.63644524
  21.29974603 13.57607774 14.98807605
  20.34739459  1.95787901 11.88993046
  13.40476402 12.09287863 10.11168720
   3.33439013  2.88355087 10.10739962
   8.20864293 13.86819791 16.31263604
  21.32759690 15.31330727 12.98949491
   1.43600223  9.72877939 11.88926245
  16.58313365 10.06030463 11.28987623
   1.76725442 14.80154965 12.98450890
  16.39878711 14.99633320 11.63069310
  17.09473205  0.88830520 14.59785642
  21.51363013  5.47332493 16.99260406
  17.20721898 15.45864163 16.47960026
  14.63491423  9.55703168 13.07549710
  13.03010146 11.41099800 12.56123752
   9.95297732  4.48486233 14.92875388
  22.90303759 13.19667544 12.81787194
  15.31181059 10.76896928 17.02888563
   9.28580787 13.53675645 13.84962657
  14.10975474  9.38073831 10.36813464
  16.84438397 11.44109054 14.97421901
   3.43617705  6.59586332 16.66583369
   1.55220540  9.94037057 14.56913563
  19.17183953 16.03184630 14.42797652
  19.38959778  6.44001838 12.14868300
  12.34673873  5.39914940 14.30791364
  17.24909611  9.04924402 16.00524752
  13.05025009  3.12466491 10.61647095
  18.86866258  4.64651294 10.30420244
   5.55892333 17.27408272 13.65458756
  16.22186982 14.07153467 14.55753936
  21.62916099 17.21139973 14.86572995
  12.30818899  5.75858696 10.71452528
  10.96899209 17.95222240 14.68013238
  19.61255832  1.71774593 14.51098347
  12.59301152  2.10962891 13.07168996
   8.19848185  3.38158105 11.81890631
   0.27532438 17.44013032  9.01248080
  10.58929173 10.77382403 18.14653653
  15.33358375 16.76934745 10.19493214
   1.78612593 12.43164436 11.71794928
  10.61363840  7.33419918 14.86955535
  16.83785811 12.69249221 10.20446890
  10.57586427 12.78968160 16.10967123
  17.61819454 12.85383870 12.80442605
  18.22754926  2.19493423 16.68698323
  23.25384464  5.58158513 12.05458163
  12.51190196  9.19993714 14.29720768
  19.12182067  9.04361594 11.38355200
   5.51952232  2.62920925 16.27360082
   4.76497818 15.05333538 12.64952801
   5.61828223 10.12474359 14.05557214
   1.43198528 11.33399866 16.76599808
   1.07865368 10.91526713  9.52151395
  18.74602040 17.73704354 16.28811035
  12.59506368  0.50191281 10.87439573
  14.19172695  5.66901830 16.26387662
  20.16990973  0.07395004  9.92550906
   2.22199659  2.70047811 12.55674536
   4.01309213  3.69854723 14.27317539
  15.00637423 12.76530096 12.22697399
  10.22576747  7.42551173 10.38808912
  13.44198255  1.06570452 15.35576557
   3.54535369 10.75328740 10.45651017
   6.26813510 10.91510113 10.54651395
  10.30702050  5.83862960 12.64390410
   5.57211440  2.87241773 11.55719116
   1.70328523  2.72367682 15.12411705
  19.78112530  9.85877806 16.12660861
  14.54261459  5.07285683 11.04652184
  14.10921452 16.15556596 12.56053950
   0.73477264  3.53889327 10.45741115
  14.23231786  3.54186594 14.71590847
   3.10901351 17.00414686 12.89022683
   1.87933669  5.08117187 13.75353825
   8.71994405  1.90422078 15.27092350
   1.56007583 12.63118594 14.40211621
  15.60335581  7.52728779 11.56015827
  18.71402865 13.22161202 15.16563536
  16.47777184 17.34580083 12.64014391
  13.98382081 11.49588123 14.87362049
  16.92262720  5.32192920 12.14235921
  22.88576102  5.69325889 14.71148987
   3.70723463 11.41480033 15.33918362
  14.82716522  5.92171361 13.65139239
  19.18765392  7.18191937 16.27945570
  22.44155659  0.49367766 11.20910044
   6.60298188  3.53523669 13.94305133
   5.83544193  8.02830396 12.39472924
   6.39672732 15.39628705 15.27169624
   4.76813504 12.42343385 13.08920785
   3.44435051  8.62697504 13.24126574
   5.25734080  7.65997360 14.97062409
  21.33745138  8.20429214 12.73515651
  20.36286723 12.76750071 12.47800922
  17.28034963  1.68227812 11.96927179
   5.20160188 16.84878525 10.96698378
   5.89542956  7.27750283 17.46574726
  14.75873563 16.00594203 15.95368111
   9.60385771 14.29878657 11.38342242
  21.48621551  3.55245637 13.66334053
   3.10309823  8.03742301  8.93260776
   3.63220806  5.50021683  8.34890949
   8.73253334  2.37219755  9.35415932
   0.80924274  5.29015541 17.02905672
  13.40739699  4.65476936  8.60535697
   5.73453436 13.96599746 17.46072374
   4.85490080 11.74990154  8.34376522
   6.44687148  7.10699146  9.87629901
   8.55333550 10.82900896  9.20004704
   5.29986877  1.01806602  9.62744117
   5.64688233  3.55318002  8.85384768
  11.73544815 16.16960912 12.22767567
  12.87819452 15.00160809 14.36551909
  12.75751652 11.70338836 17.07566963
  11.19888545  2.22014187 16.02785885
   6.14830499 12.58148116 15.28285871
  10.35597357 15.36383624 15.62923910
  17.92063829 11.17861192 17.45891633
  19.77691733 15.07136485 16.74859459
  14.98116547 13.40013042 16.69341027
   0.19039648  0.60651777 16.21015779
   6.66267043  0.03699765 15.95114991
  11.77951321 17.61833304 16.90090233
  10.55278529  7.92068775 19.67903544
   1.94841153 10.98908596 10.92575188
   9.57564507 13.88681693 15.44140192
  19.70678074  7.99967650 12.57708649
   0.40008717 17.94875972 10.58159830
   0.34415087  5.14987929 10.51358498
   0.21643627  2.08527429 15.39073649
  14.26269507 11.91702570 16.42403676
   5.00979854  8.62317343 13.70348253
  21.42278905 13.69169878 13.34099278
  12.18741762  2.00159257 11.45195358
   9.79669401  3.07666579 15.83270774
   1.95373172  2.52197018 10.94101594
  16.43233932  0.81266960 13.10088356
  15.56990047 16.27354966 11.76083937
  15.21965321  9.13359373 11.56390395
   4.64622068 16.53530673 12.47363180
   5.01750195  6.64096841 16.22727273
  15.77000241 14.74480165 15.98655094
   5.07324899 11.62655032 14.47695530
   8.63383069 13.32142384 12.34509184
  18.66909313 16.10240707 16.01463158
  20.59734301 16.53201497 13.76410193
  13.49390525 10.41196929 13.76362728
  13.81004174  2.09373928 14.11904853
  20.08975493  2.75647992 13.31199648
  19.55859052 10.93832392 17.36379439
   3.13099191  6.52942423  9.59392828
  18.51026388  5.07284540 11.87902451
   9.34522920  3.21642612 10.64589911
  20.04033303 13.59322917 16.03700907
   6.63258579 16.93779000 14.76760315
   0.54020935  5.98811771 13.50205012
  13.45117902 12.60314055 11.70943634
   5.39023881 13.63805192 12.15046292
  13.89951007  5.14480737 14.73720258
  22.83027568  4.93477706 16.20092821
  20.81044864  0.46044249 11.40392910
   2.45069914  3.54198725 13.91884679
   1.12715225 13.28353886 12.97472440
   5.42999751  3.72908222 15.08210957
  13.14328356  4.67138795 10.24864117
  11.15179143 11.38859718 16.71292428
   6.58978515 13.96192734 16.06303431
   4.88127424 11.65920103  9.99508876
  17.33354231 12.88331972 14.40456861
  23.09724940 17.95118093 14.79575675
  16.46058793 13.35205634 11.67438144
  18.44595000  1.07779429 15.50576312
  10.68289909  5.95194918 11.00303640
  10.52356641 16.97159452 15.97847176
  11.90486508  0.75068141 15.75645562
   5.71814202  6.71222076 11.31647527
  15.41693082  5.98004644 12.10686792
  10.77534733  5.76979379 14.22029442
   7.89661487 10.69048858 10.72869482
  18.80370174  8.63362015 15.58613634
   1.62029077 16.28843974 12.91760565
   4.96103075  2.61769098 10.04353415
   1.83153245  8.95161914 13.29886860
  13.05343995 15.44545689 12.76234739
  16.81671628 10.59834519 16.38494175
   6.71066321  3.80730338 12.34244318
   2.06377039 11.33567753 15.25892066
   8.27515695  0.35488843 15.53746175
  11.41076182  8.70874376 15.40962805
  11.35299006  9.04567934 18.64874571



--------------------------------------------------------------------------------------------------------


 k-point  1 :   0.0000 0.0000 0.0000  plane waves:  289505
 k-point  2 :   0.3333 0.0000 0.0000  plane waves:  289422
 k-point  3 :   0.0000 0.3333 0.0000  plane waves:  289550
 k-point  4 :   0.3333 0.3333 0.0000  plane waves:  289551
 k-point  5 :  -0.3333 0.3333 0.0000  plane waves:  289551

 maximum and minimum number of plane-waves per node :     72451    72309

 maximum number of plane-waves:    289551
 maximum index in each direction: 
   IXMAX=   43   IYMAX=   33   IZMAX=   49
   IXMIN=  -43   IYMIN=  -33   IZMIN=  -49


 real space projection operators:
  total allocation   :      13526.41 KBytes
  max/ min on nodes  :       3384.88       3378.88


 parallel 3D FFT for wavefunctions:
    minimum data exchange during FFTs selected (reduces bandwidth)
 parallel 3D FFT for charge:
    minimum data exchange during FFTs selected (reduces bandwidth)


 total amount of memory used by VASP MPI-rank0   389367. kBytes
=======================================================================

   base      :      30000. kBytes
   nonlr-proj:      16574. kBytes
   fftplans  :      22890. kBytes
   grid      :      38557. kBytes
   one-center:       1057. kBytes
   wavefun   :     280289. kBytes

     INWAV:  cpu time    0.0001: real time    0.0001
 Broyden mixing: mesh for mixing (old mesh)
   NGX = 85   NGY = 67   NGZ = 99
  (NGX  =256   NGY  =200   NGZ  =300)
  gives a total of 563805 points

 initial charge density was supplied:
 charge density of overlapping atoms calculated
 number of electron    1246.0000000 magnetization 
 keeping initial charge density in first step


--------------------------------------------------------------------------------------------------------


 Maximum index for non-local projection operator          670
 Maximum index for augmentation-charges          494 (set IRDMAX)


--------------------------------------------------------------------------------------------------------


 First call to EWALD:  gamma=   0.079
 Maximum number of real-space cells 3x 3x 2
 Maximum number of reciprocal cells 3x 2x 3

    FEWALD:  cpu time    0.0182: real time    0.0182


--------------------------------------- Iteration      1(   1)  ---------------------------------------


    POTLOK:  cpu time    0.1804: real time    0.2009
    SETDIJ:  cpu time    0.3576: real time    0.3593
     EDDAV:  cpu time   47.3831: real time   47.5730
       DOS:  cpu time    0.0016: real time    0.0016
    --------------------------------------------
      LOOP:  cpu time   47.9228: real time   48.1348

 eigenvalue-minimisations  :  8560
 total energy-change (2. order) : 0.1274887E+05  (-0.4870624E+05)
 number of electron    1246.0000000 magnetization 
 augmentation part     1246.0000000 magnetization 

 DIPCOR: dipole corrections for dipol
 direction  3 min pos    60,
 dipolmoment           0.000000      0.000000      0.106434 electrons x Angstroem
 Tr[quadrupol]    -93443.300771

 energy correction for charged system         0.000000 eV
 dipol+quadrupol energy correction           -0.000092 eV
 added-field ion interaction         11.306809 eV  (added to PSCEN)


 Free energy of the ion-electron system (eV)
  ---------------------------------------------------
  alpha Z        PSCENC =       491.24216411
  Ewald energy   TEWEN  =    308987.67579707
  -Hartree energ DENC   =   -370927.95756771
  -exchange      EXHF   =         0.00000000
  -V(xc)+E(xc)   XCENC  =      3742.62213742
  PAW double counting   =     59729.87451082   -58746.54997561
  entropy T*S    EENTRO =        -1.61942555
  eigenvalues    EBANDS =     -4888.99015977
  atomic energy  EATOM  =     74362.57199611
  Solvation  Ediel_sol  =         0.00000000
  ---------------------------------------------------
  free energy    TOTEN  =     12748.86947689 eV

  energy without entropy =    12750.48890244  energy(sigma->0) =    12749.67918966


--------------------------------------------------------------------------------------------------------




--------------------------------------- Iteration      1(   2)  ---------------------------------------


     EDDAV:  cpu time   57.0728: real time   57.3020
       DOS:  cpu time    0.0010: real time    0.0010
    --------------------------------------------
      LOOP:  cpu time   57.0738: real time   57.3030

 eigenvalue-minimisations  : 10832
 total energy-change (2. order) :-0.1210429E+05  (-0.1170069E+05)
 number of electron    1246.0000000 magnetization 
 augmentation part     1246.0000000 magnetization 

 DIPCOR: dipole corrections for dipol
 direction  3 min pos    60,
 dipolmoment           0.000000      0.000000      0.106434 electrons x Angstroem
 Tr[quadrupol]    -93443.300771

 energy correction for charged system         0.000000 eV
 dipol+quadrupol energy correction           -0.000092 eV
 added-field ion interaction         11.306809 eV  (added to PSCEN)


 Free energy of the ion-electron system (eV)
  ---------------------------------------------------
  alpha Z        PSCENC =       491.24216411
  Ewald energy   TEWEN  =    308987.67579707
  -Hartree energ DENC   =   -370927.95756771
  -exchange      EXHF   =         0.00000000
  -V(xc)+E(xc)   XCENC  =      3742.62213742
  PAW double counting   =     59729.87451082   -58746.54997561
  entropy T*S    EENTRO =        -0.00000000
  eigenvalues    EBANDS =    -16994.90109727
  atomic energy  EATOM  =     74362.57199611
  Solvation  Ediel_sol  =         0.00000000
  ---------------------------------------------------
  free energy    TOTEN  =       644.57796494 eV

  energy without entropy =      644.57796494  energy(sigma->0) =      644.57796494


--------------------------------------------------------------------------------------------------------




--------------------------------------- Iteration      1(   3)  ---------------------------------------


     EDDAV:  cpu time   49.0722: real time   49.2627
       DOS:  cpu time    0.0011: real time    0.0011
    --------------------------------------------
      LOOP:  cpu time   49.0734: real time   49.2638

 eigenvalue-minimisations  :  8992
 total energy-change (2. order) :-0.2627204E+04  (-0.2617681E+04)
 number of electron    1246.0000000 magnetization 
 augmentation part     1246.0000000 magnetization 

 DIPCOR: dipole corrections for dipol
 direction  3 min pos    60,
 dipolmoment           0.000000      0.000000      0.106434 electrons x Angstroem
 Tr[quadrupol]    -93443.300771

 energy correction for charged system         0.000000 eV
 dipol+quadrupol energy correction           -0.000092 eV
 added-field ion interaction         11.306809 eV  (added to PSCEN)


 Free energy of the ion-electron system (eV)
  ---------------------------------------------------
  alpha Z        PSCENC =       491.24216411
  Ewald energy   TEWEN  =    308987.67579707
  -Hartree energ DENC   =   -370927.95756771
  -exchange      EXHF   =         0.00000000
  -V(xc)+E(xc)   XCENC  =      3742.62213742
  PAW double counting   =     59729.87451082   -58746.54997561
  entropy T*S    EENTRO =        -0.00000000
  eigenvalues    EBANDS =    -19622.10522019
  atomic energy  EATOM  =     74362.57199611
  Solvation  Ediel_sol  =         0.00000000
  ---------------------------------------------------
  free energy    TOTEN  =     -1982.62615798 eV

  energy without entropy =    -1982.62615798  energy(sigma->0) =    -1982.62615798


--------------------------------------------------------------------------------------------------------




--------------------------------------- Iteration      1(   4)  ---------------------------------------


     EDDAV:  cpu time   48.8429: real time   49.0349
[...]
    0.0000000000E+00    0.0000000000E+00    0.0000000000E+00
    1.5210086586E-02   -4.2050839644E-03   -1.5229982531E-02
   -2.8406606110E-03    1.6738381523E-03    9.4655405897E-04
    0.0000000000E+00    0.0000000000E+00    0.0000000000E+00
    2.3144949682E-03   -7.4353271931E-03    5.5047604312E-03
    9.9980245422E-04    1.8601596057E-03   -4.3232862495E-04
    0.0000000000E+00    0.0000000000E+00    0.0000000000E+00
    1.9242920912E-03   -4.3903816248E-03    1.2290046816E-03
    0.0000000000E+00    0.0000000000E+00    0.0000000000E+00
    1.3541410071E-03   -1.3096836884E-04   -5.1733347212E-04
    2.8080653004E-04    3.7681421558E-04   -5.7959576117E-04
    0.0000000000E+00    0.0000000000E+00    0.0000000000E+00
    0.0000000000E+00    0.0000000000E+00    0.0000000000E+00
    1.7203764044E-04   -4.2397618021E-03   -2.8804230674E-03
    0.0000000000E+00    0.0000000000E+00    0.0000000000E+00
   -1.3176397000E-04    6.3963564621E-04   -1.1303681422E-03
    0.0000000000E+00    0.0000000000E+00    0.0000000000E+00
    0.0000000000E+00    0.0000000000E+00    0.0000000000E+00
    0.0000000000E+00    0.0000000000E+00    0.0000000000E+00
    0.0000000000E+00    0.0000000000E+00    0.0000000000E+00
    7.4757011255E-04   -1.6956766822E-03    4.0612185707E-03
    0.0000000000E+00    0.0000000000E+00    0.0000000000E+00
   -1.0106618034E-03   -1.6353789863E-03   -1.4678982339E-04
    6.9592794487E-04   -1.0546087973E-03    2.1177730225E-04
   -5.6796922636E-03   -4.8066756817E-03   -5.5616708060E-03
    5.7290498989E-02   -3.1220119665E-02    8.0999019030E-03
 Dimer: -----------------
 Dimer: Itr    1 Rot    0

 Dimer: Central Point
 Dimer: F0      0.264223

 Dimer: Projection
 Dimer: N*F0  -7.0882773292622103E-002
 Dimer: F0sq   6.9813942592306305E-002
 Dimer: Feffsq    5.0243675496532648E-003
 Dimer: Feff
    1.8585621752E-02   -8.0782191116E-03    1.0815142488E-02
   -1.1119218394E-02    2.2709632676E-02    2.3497170463E-02
    4.6695452198E-05    5.0345392007E-05   -5.2163726811E-06
    0.0000000000E+00    0.0000000000E+00    0.0000000000E+00
    0.0000000000E+00    0.0000000000E+00    0.0000000000E+00
    0.0000000000E+00    0.0000000000E+00    0.0000000000E+00
    0.0000000000E+00    0.0000000000E+00    0.0000000000E+00
    0.0000000000E+00    0.0000000000E+00    0.0000000000E+00
    0.0000000000E+00    0.0000000000E+00    0.0000000000E+00
   -2.5010856756E-06    2.8044341437E-06   -2.7338647738E-06
    0.0000000000E+00    0.0000000000E+00    0.0000000000E+00
   -1.0827328729E-04    1.1175331142E-04   -2.4012693192E-05
   -1.3754342885E-04    1.1184958668E-05   -1.4920865191E-04
   -1.1425856892E-05    2.9973298659E-05   -2.3628050000E-05
   -4.5308551365E-05    6.6527106586E-05    3.0338566932E-05
    0.0000000000E+00    0.0000000000E+00    0.0000000000E+00
    0.0000000000E+00    0.0000000000E+00    0.0000000000E+00
    4.9795340247E-05    7.1504776702E-05   -2.5218584178E-05
    0.0000000000E+00    0.0000000000E+00    0.0000000000E+00
    0.0000000000E+00    0.0000000000E+00    0.0000000000E+00
    0.0000000000E+00    0.0000000000E+00    0.0000000000E+00
    0.0000000000E+00    0.0000000000E+00    0.0000000000E+00
    0.0000000000E+00    0.0000000000E+00    0.0000000000E+00
   -3.8815450556E-05   -4.5087922714E-05    5.3240299099E-05
    0.0000000000E+00    0.0000000000E+00    0.0000000000E+00
    0.0000000000E+00    0.0000000000E+00    0.0000000000E+00
    0.0000000000E+00    0.0000000000E+00    0.0000000000E+00
    0.0000000000E+00    0.0000000000E+00    0.0000000000E+00
    0.0000000000E+00    0.0000000000E+00    0.0000000000E+00
    0.0000000000E+00    0.0000000000E+00    0.0000000000E+00
   -4.5731938674E-05    1.1129138518E-04   -3.4401277559E-05
   -1.1305873629E-04    2.4123715646E-04   -7.0435485611E-05
    4.1372420688E-05   -3.1454636925E-05    8.7135607844E-06
    0.0000000000E+00    0.0000000000E+00    0.0000000000E+00
    0.0000000000E+00    0.0000000000E+00    0.0000000000E+00
    0.0000000000E+00    0.0000000000E+00    0.0000000000E+00
    0.0000000000E+00    0.0000000000E+00    0.0000000000E+00
    0.0000000000E+00    0.0000000000E+00    0.0000000000E+00
    0.0000000000E+00    0.0000000000E+00    0.0000000000E+00
    0.0000000000E+00    0.0000000000E+00    0.0000000000E+00
    0.0000000000E+00    0.0000000000E+00    0.0000000000E+00
    0.0000000000E+00    0.0000000000E+00    0.0000000000E+00
   -2.1791668625E-05    5.0098646336E-05    2.0973087549E-05
   -2.7742801391E-05   -9.2390874824E-06    7.9765601609E-06
    7.5692426559E-05    9.3225303301E-05   -8.0819631957E-05
   -4.7748084504E-05    4.9491298804E-05    8.4740372986E-05
    3.5073084469E-03   -2.5900221677E-04    4.2906982516E-03
    4.5228296794E-03   -1.4884541635E-03    4.0154478136E-03
   -2.4437066393E-02   -3.3401287098E-03   -4.8202170075E-02
    1.5161116314E-03    4.0249317785E-03    1.0339811228E-02
    0.0000000000E+00    0.0000000000E+00    0.0000000000E+00
    0.0000000000E+00    0.0000000000E+00    0.0000000000E+00
    1.0920913279E-04    2.3158779862E-05   -2.1331245225E-05
   -1.0527587967E-07   -2.5799069179E-04    1.6384539190E-04
    3.5232813905E-05    9.6597603615E-05   -7.1873555062E-05
    0.0000000000E+00    0.0000000000E+00    0.0000000000E+00
    0.0000000000E+00    0.0000000000E+00    0.0000000000E+00
    0.0000000000E+00    0.0000000000E+00    0.0000000000E+00
    0.0000000000E+00    0.0000000000E+00    0.0000000000E+00
    3.5201883289E-04   -2.1761266914E-04    1.4547007831E-03
    0.0000000000E+00    0.0000000000E+00    0.0000000000E+00
    0.0000000000E+00    0.0000000000E+00    0.0000000000E+00
    8.3310676246E-05   -1.1845464835E-04    1.4691507373E-05
    0.0000000000E+00    0.0000000000E+00    0.0000000000E+00
    1.9328975707E-04   -2.5879232160E-05   -5.0230042846E-05
    0.0000000000E+00    0.0000000000E+00    0.0000000000E+00
    0.0000000000E+00    0.0000000000E+00    0.0000000000E+00
    0.0000000000E+00    0.0000000000E+00    0.0000000000E+00
   -2.7044072428E-05    6.2373486818E-05   -1.7498590606E-05
    1.5495595014E-04    2.3039226571E-04    4.1373502672E-05
    5.7844399936E-04   -1.1488137223E-03   -6.7715501539E-04
    0.0000000000E+00    0.0000000000E+00    0.0000000000E+00
    0.0000000000E+00    0.0000000000E+00    0.0000000000E+00
    0.0000000000E+00    0.0000000000E+00    0.0000000000E+00
    0.0000000000E+00    0.0000000000E+00    0.0000000000E+00
    0.0000000000E+00    0.0000000000E+00    0.0000000000E+00
   -1.6418464937E-03    7.2035632138E-04    1.8519336453E-03
   -9.9757604942E-04   -2.3839727109E-04   -2.7720928927E-04
   -4.5507281954E-04    7.9667918804E-05    6.4734689162E-05
    9.8541175406E-06    2.3711961826E-05    2.5723833060E-06
    0.0000000000E+00    0.0000000000E+00    0.0000000000E+00
    0.0000000000E+00    0.0000000000E+00    0.0000000000E+00
    0.0000000000E+00    0.0000000000E+00    0.0000000000E+00
   -1.1537088832E-04    1.3065005784E-04   -1.9471589155E-04
    0.0000000000E+00    0.0000000000E+00    0.0000000000E+00
    0.0000000000E+00    0.0000000000E+00    0.0000000000E+00
    0.0000000000E+00    0.0000000000E+00    0.0000000000E+00
    0.0000000000E+00    0.0000000000E+00    0.0000000000E+00
    0.0000000000E+00    0.0000000000E+00    0.0000000000E+00
    1.5650997558E-04   -1.6763357770E-04    1.7394611538E-05
   -2.2830625172E-04    3.8134615416E-05   -1.1484567432E-04
   -8.3673902918E-05    4.0977035687E-04   -3.1539527439E-04
    0.0000000000E+00    0.0000000000E+00    0.0000000000E+00
    0.0000000000E+00    0.0000000000E+00    0.0000000000E+00
   -2.7977953177E-05   -3.3337575623E-05    3.9902102078E-05
    0.0000000000E+00    0.0000000000E+00    0.0000000000E+00
   -9.6094725660E-05    6.2453899158E-06   -1.1308941496E-04
    2.8442373193E-04   -2.9349309311E-04    6.2915403040E-05
    0.0000000000E+00    0.0000000000E+00    0.0000000000E+00
   -1.8129717332E-04   -7.7763161322E-05    3.6362927570E-04
    2.5033746017E-04   -2.3591097254E-04    7.0715085234E-04
    4.0074877941E-05   -2.2570017783E-04    1.6300575614E-04
   -7.7795495569E-04    4.1837306937E-05   -2.5094666364E-04
    0.0000000000E+00    0.0000000000E+00    0.0000000000E+00
   -5.4239273363E-05   -5.3480597392E-04   -1.0907196597E-03
   -1.1044431799E-04    4.2238384277E-05   -9.8877190103E-05
    0.0000000000E+00    0.0000000000E+00    0.0000000000E+00
    0.0000000000E+00    0.0000000000E+00    0.0000000000E+00
    0.0000000000E+00    0.0000000000E+00    0.0000000000E+00
    1.0910207644E-04   -1.6643350164E-04    1.2267320780E-04
   -3.2703961822E-05    8.7948580227E-05   -1.5250840486E-04
    0.0000000000E+00    0.0000000000E+00    0.0000000000E+00
   -1.4559498449E-05   -1.4249459191E-05   -5.2205994774E-05
   -5.0713380318E-05   -1.2635731297E-04    1.8649991172E-05
    0.0000000000E+00    0.0000000000E+00    0.0000000000E+00
    0.0000000000E+00    0.0000000000E+00    0.0000000000E+00
    0.0000000000E+00    0.0000000000E+00    0.0000000000E+00
    5.1535814083E-03   -4.9825805422E-03    1.1844603419E-03
    0.0000000000E+00    0.0000000000E+00    0.0000000000E+00
    0.0000000000E+00    0.0000000000E+00    0.0000000000E+00
   -7.6954986144E-05   -1.8100534397E-04   -3.9203476559E-04
    0.0000000000E+00    0.0000000000E+00    0.0000000000E+00
   -6.5438019196E-04   -3.7278671015E-04    1.1351968959E-03
    0.0000000000E+00    0.0000000000E+00    0.0000000000E+00
    1.5563272734E-05   -2.3728642923E-04    2.4596429212E-05
    0.0000000000E+00    0.0000000000E+00    0.0000000000E+00
    2.3105652478E-04    3.2529496247E-04    6.9565867722E-04
    0.0000000000E+00    0.0000000000E+00    0.0000000000E+00
    3.0820077446E-04    3.0579332410E-05    1.1724761236E-04
    0.0000000000E+00    0.0000000000E+00    0.0000000000E+00
    2.9456588022E-05   -2.4594608048E-05    1.9077801769E-04
   -1.3825731908E-06    5.3351846584E-05    9.0681283623E-05
    0.0000000000E+00    0.0000000000E+00    0.0000000000E+00
   -2.0319380248E-04   -3.6270414337E-04    5.9547075394E-04
    0.0000000000E+00    0.0000000000E+00    0.0000000000E+00
   -1.2687413782E-03   -5.4364277691E-04   -9.4811580308E-07
    0.0000000000E+00    0.0000000000E+00    0.0000000000E+00
    0.0000000000E+00    0.0000000000E+00    0.0000000000E+00
    2.2242357673E-04   -3.9749419050E-04    8.1149621959E-04
    0.0000000000E+00    0.0000000000E+00    0.0000000000E+00
    0.0000000000E+00    0.0000000000E+00    0.0000000000E+00
   -1.1385969230E-05   -1.1022799862E-05   -2.8768751125E-05
    0.0000000000E+00    0.0000000000E+00    0.0000000000E+00
    0.0000000000E+00    0.0000000000E+00    0.0000000000E+00
    0.0000000000E+00    0.0000000000E+00    0.0000000000E+00
    0.0000000000E+00    0.0000000000E+00    0.0000000000E+00
   -1.9736509900E-05    1.8155214055E-04    4.2258352230E-05
   -1.5912053000E-04    2.4319992601E-04   -1.1211952594E-04
    0.0000000000E+00    0.0000000000E+00    0.0000000000E+00
    0.0000000000E+00    0.0000000000E+00    0.0000000000E+00
    0.0000000000E+00    0.0000000000E+00    0.0000000000E+00
    1.5478505687E-04   -7.4298203613E-05   -1.4132470961E-04
    0.0000000000E+00    0.0000000000E+00    0.0000000000E+00
    1.2376312595E-04   -2.7045359908E-06   -2.6913886070E-05
    1.3150238825E-04   -1.8119354009E-04   -2.1822707122E-04
   -2.3124072664E-04   -4.2295304074E-04   -1.7061479847E-04
    0.0000000000E+00    0.0000000000E+00    0.0000000000E+00
    2.4679501773E-04   -1.6228952045E-04    3.4135024203E-05
    0.0000000000E+00    0.0000000000E+00    0.0000000000E+00
   -2.1150942958E-04    3.9959872945E-04    7.4678464131E-05
    0.0000000000E+00    0.0000000000E+00    0.0000000000E+00
   -3.6614017231E-05   -7.9598122274E-05    2.0322931548E-06
   -7.7001858760E-05    3.2271650512E-05   -2.8375927438E-05
    0.0000000000E+00    0.0000000000E+00    0.0000000000E+00
   -8.2273374452E-05    7.2451400843E-05   -9.5718204945E-05
    0.0000000000E+00    0.0000000000E+00    0.0000000000E+00
    1.4782000236E-04   -1.1295531155E-03   -7.9987754650E-06
    0.0000000000E+00    0.0000000000E+00    0.0000000000E+00
   -3.8518144888E-04    2.4211655860E-04    4.4042452570E-04
    0.0000000000E+00    0.0000000000E+00    0.0000000000E+00
    0.0000000000E+00    0.0000000000E+00    0.0000000000E+00
   -2.0449215780E-04   -2.1288512084E-04    9.2476745249E-06
    0.0000000000E+00    0.0000000000E+00    0.0000000000E+00
    0.0000000000E+00    0.0000000000E+00    0.0000000000E+00
    0.0000000000E+00    0.0000000000E+00    0.0000000000E+00
    0.0000000000E+00    0.0000000000E+00    0.0000000000E+00
    4.9199156086E-05    2.2465578523E-04   -7.0636216380E-06
    1.4115878318E-04    1.5943608985E-04   -1.7355614289E-04
    0.0000000000E+00    0.0000000000E+00    0.0000000000E+00
    0.0000000000E+00    0.0000000000E+00    0.0000000000E+00
    0.0000000000E+00    0.0000000000E+00    0.0000000000E+00
    0.0000000000E+00    0.0000000000E+00    0.0000000000E+00
    0.0000000000E+00    0.0000000000E+00    0.0000000000E+00
   -1.1716134981E-04    2.4494962655E-04   -5.5208436674E-05
    0.0000000000E+00    0.0000000000E+00    0.0000000000E+00
    1.6357612123E-04   -4.3734345502E-05    3.1937035475E-04
    0.0000000000E+00    0.0000000000E+00    0.0000000000E+00
    0.0000000000E+00    0.0000000000E+00    0.0000000000E+00
    0.0000000000E+00    0.0000000000E+00    0.0000000000E+00
    0.0000000000E+00    0.0000000000E+00    0.0000000000E+00
    0.0000000000E+00    0.0000000000E+00    0.0000000000E+00
    0.0000000000E+00    0.0000000000E+00    0.0000000000E+00
   -3.1689122226E-05   -1.8228750768E-04   -8.8101981223E-05
    2.0158543886E-04    2.4191910392E-05   -1.4431796589E-04
   -6.9041982666E-05    3.9064855990E-05   -3.7310185190E-05
   -1.7296019571E-04    1.9072245680E-04    2.3013230290E-05
    2.1301704283E-04   -1.7005641283E-04    4.8128520647E-06
   -8.8909255850E-06   -3.3858693499E-05    2.5076947204E-04
    1.3819216741E-04   -1.0298158058E-04   -2.3533473914E-04
   -1.8892053386E-04    3.7834487724E-04   -1.3725814026E-05
    1.8321810505E-04    6.6539223969E-05   -3.0041184733E-05
    9.6515081210E-06    1.7154335336E-04   -7.5285598894E-06
    2.3210360744E-04   -1.6492470023E-04   -1.8130376787E-04
    4.5894561429E-04   -5.7716944564E-03   -6.1967163764E-03
    0.0000000000E+00    0.0000000000E+00    0.0000000000E+00
   -1.0728180880E-04    1.2656045838E-04   -2.9891896146E-05
    0.0000000000E+00    0.0000000000E+00    0.0000000000E+00
    0.0000000000E+00    0.0000000000E+00    0.0000000000E+00
    0.0000000000E+00    0.0000000000E+00    0.0000000000E+00
    4.0973566885E-06    1.2676673861E-04    1.7104123832E-04
    4.5661852971E-04    2.2633938308E-04   -5.4495444000E-05
   -3.3116323822E-05    2.8296510655E-05   -5.9280735653E-05
    0.0000000000E+00    0.0000000000E+00    0.0000000000E+00
    0.0000000000E+00    0.0000000000E+00    0.0000000000E+00
   -1.1123726158E-04   -7.2597979543E-05   -6.7124057055E-05
    0.0000000000E+00    0.0000000000E+00    0.0000000000E+00
    0.0000000000E+00    0.0000000000E+00    0.0000000000E+00
    0.0000000000E+00    0.0000000000E+00    0.0000000000E+00
    0.0000000000E+00    0.0000000000E+00    0.0000000000E+00
    0.0000000000E+00    0.0000000000E+00    0.0000000000E+00
   -3.9265975038E-05    1.2088570278E-04    8.6299350216E-05
    8.2778733376E-05    2.3134803438E-04   -1.3006624730E-04
   -8.1196508922E-05    1.1424893758E-05    1.0226146615E-06
    0.0000000000E+00    0.0000000000E+00    0.0000000000E+00
    5.5904066165E-05   -1.0163337530E-04   -4.0276603539E-06
   -2.4415922633E-04   -3.9932332748E-05    1.9543858694E-05
    2.2245997649E-04    1.6615475123E-04   -2.3915219446E-05
    1.9287736574E-05   -3.4013545779E-05   -4.7152560374E-05
    0.0000000000E+00    0.0000000000E+00    0.0000000000E+00
    2.1881823196E-05   -7.8122037762E-06    8.9019804672E-05
    0.0000000000E+00    0.0000000000E+00    0.0000000000E+00
    0.0000000000E+00    0.0000000000E+00    0.0000000000E+00
    0.0000000000E+00    0.0000000000E+00    0.0000000000E+00
    2.2658858371E-04   -1.9539340909E-04   -1.0091961312E-04
   -1.0417959228E-04    6.7887579606E-05    6.0630502670E-05
    0.0000000000E+00    0.0000000000E+00    0.0000000000E+00
    0.0000000000E+00    0.0000000000E+00    0.0000000000E+00
    0.0000000000E+00    0.0000000000E+00    0.0000000000E+00
   -1.5425404798E-04   -1.7864252667E-04   -2.6999999434E-04
   -1.0878245061E-04   -6.4343862443E-05    8.8114572137E-05
    0.0000000000E+00    0.0000000000E+00    0.0000000000E+00
   -1.3053167842E-05   -5.1017398543E-05    1.4626943297E-05
    0.0000000000E+00    0.0000000000E+00    0.0000000000E+00
    6.9481338236E-04   -1.2465618477E-04   -4.0772722584E-04
    0.0000000000E+00    0.0000000000E+00    0.0000000000E+00
    1.0781331192E-03   -2.9806801332E-04   -1.0795433990E-03
   -2.0135390209E-04    1.1864629028E-04    6.7094376771E-05
    0.0000000000E+00    0.0000000000E+00    0.0000000000E+00
    1.6405782212E-04   -5.2703661178E-04    3.9019268567E-04
    7.0868770700E-05    1.3185327162E-04   -3.0644651910E-05
    0.0000000000E+00    0.0000000000E+00    0.0000000000E+00
    1.3639916005E-04   -3.1120242538E-04    8.7115260221E-05
    0.0000000000E+00    0.0000000000E+00    0.0000000000E+00
    9.5985270012E-05   -9.2834011970E-06   -3.6670031221E-05
    1.9904345608E-05    2.6709636616E-05   -4.1083354940E-05
    0.0000000000E+00    0.0000000000E+00    0.0000000000E+00
    0.0000000000E+00    0.0000000000E+00    0.0000000000E+00
    1.2194505065E-05   -3.0052607463E-04   -2.0417237527E-04
    0.0000000000E+00    0.0000000000E+00    0.0000000000E+00
   -9.3397956136E-06    4.5339148500E-05   -8.0123628761E-05
    0.0000000000E+00    0.0000000000E+00    0.0000000000E+00
    0.0000000000E+00    0.0000000000E+00    0.0000000000E+00
    0.0000000000E+00    0.0000000000E+00    0.0000000000E+00
    0.0000000000E+00    0.0000000000E+00    0.0000000000E+00
    5.2989842808E-05   -1.2019426584E-04    2.8787043524E-04
    0.0000000000E+00    0.0000000000E+00    0.0000000000E+00
   -7.1638511486E-05   -1.1592019793E-04   -1.0404869773E-05
    4.9329302744E-05   -7.4753596291E-05    1.5011362504E-05
   -4.0259233909E-04   -3.4071050264E-04   -3.9422665087E-04
    4.0609094517E-03   -2.2129686644E-03    5.7414351028E-04
 
 stress matrix after NEB project (eV)
    -32.41571      0.15522      0.29670
      0.15522    -33.04353     -0.08339
      0.29670     -0.08339    -24.74413
  FORCES: max atom, RMS     0.081720    0.016080
  FORCE total and by dimension    0.264223    0.071762
  Stress total and by dimension   52.489643   33.043527
 OPT: skip step - force has converged


--------------------------------------------------------------------------------------------------------


  
 reached required accuracy - stopping structural energy minimisation
     LOOP+:  cpu time  994.5200: real time  998.8539
    4ORBIT:  cpu time    0.0000: real time    0.0000

 total amount of memory used by VASP MPI-rank0   389367. kBytes
=======================================================================

   base      :      30000. kBytes
   nonlr-proj:      16574. kBytes
   fftplans  :      22890. kBytes
   grid      :      38557. kBytes
   one-center:       1057. kBytes
   wavefun   :     280289. kBytes

  
  
 General timing and accounting informations for this job:
 ========================================================
  
                  Total CPU time used (sec):     1077.716
                            User time (sec):     1073.172
                          System time (sec):        4.545
                         Elapsed time (sec):     1085.547
  
                   Maximum memory used (kb):      689664.
                   Average memory used (kb):           0.
  
                          Minor page faults:      1339634
                          Major page faults:          210
                 Voluntary context switches:         7655
