 vasp.5.4.4.18Apr17-6-g9f103f2a35 (build Oct 20 2021 08:33:53) complex           
 executed on             LinuxGNU date 2024.04.16  21:56:14
 running on   32 total cores
 distrk:  each k-point on   32 cores,    1 groups
 distr:  one band on NCORES_PER_BAND=   4 cores,    8 groups


--------------------------------------------------------------------------------------------------------


 INCAR:
 POTCAR:    PAW_PBE C 08Apr2002                   
 POTCAR:    PAW_PBE H 15Jun2001                   
 POTCAR:    PAW_PBE O 08Apr2002                   
 POTCAR:    PAW_PBE Si 05Jan2001                  
 POTCAR:    PAW_PBE W 08Apr2002                   
 POTCAR:    PAW_PBE C 08Apr2002                   
   VRHFIN =C: s2p2                                                              
   LEXCH  = PE                                                                  
   EATOM  =   147.1560 eV,   10.8157 Ry                                         
                                                                                
   TITEL  = PAW_PBE C 08Apr2002                                                 
   LULTRA =        F    use ultrasoft PP ?                                      
   IUNSCR =        1    unscreen: 0-lin 1-nonlin 2-no                           
   RPACOR =    1.200    partial core radius                                     
   POMASS =   12.011; ZVAL   =    4.000    mass and valenz                      
   RCORE  =    1.500    outmost cutoff radius                                   
   RWIGS  =    1.630; RWIGS  =    0.863    wigner-seitz radius (au A)           
   ENMAX  =  400.000; ENMIN  =  300.000 eV                                      
   ICORE  =        2    local potential                                         
   LCOR   =        T    correct aug charges                                     
   LPAW   =        T    paw PP                                                  
   EAUG   =  644.873                                                            
   DEXC   =    0.000                                                            
   RMAX   =    1.529    core radius for proj-oper                               
   RAUG   =    1.300    factor for augmentation sphere                          
   RDEP   =    1.501    radius for radial grids                                 
   RDEPT  =    1.300    core radius for aug-charge                              
                                                                                
   Atomic configuration                                                         
    4 entries                                                                   
     n  l   j            E        occ.                                          
     1  0  0.50      -273.3789   2.0000                                         
     2  0  0.50       -13.7508   2.0000                                         
     2  1  0.50        -5.2854   2.0000                                         
     3  2  1.50        -5.4423   0.0000                                         
   Description                                                                  
     l       E           TYP  RCUT    TYP  RCUT                                 
     0    -13.7508458     23  1.200                                             
     0     -8.2022199     23  1.200                                             
     1     -5.2854383     23  1.500                                             
     1     34.0145650     23  1.500                                             
     2     -5.4423304      7  1.500                                             
  local pseudopotential read in
  partial core-charges read in
  partial kinetic energy density read in
  atomic valenz-charges read in
  non local Contribution for L=           0  read in
    real space projection operators read in
  non local Contribution for L=           0  read in
    real space projection operators read in
  non local Contribution for L=           1  read in
    real space projection operators read in
  non local Contribution for L=           1  read in
    real space projection operators read in
    PAW grid and wavefunctions read in

   number of l-projection  operators is LMAX  =           4
   number of lm-projection operators is LMMAX =           8

 POTCAR:    PAW_PBE H 15Jun2001                   
   VRHFIN =H: ultrasoft test                                                    
   LEXCH  = PE                                                                  
   EATOM  =    12.4884 eV,    0.9179 Ry                                         
                                                                                
   TITEL  = PAW_PBE H 15Jun2001                                                 
   LULTRA =        F    use ultrasoft PP ?                                      
   IUNSCR =        0    unscreen: 0-lin 1-nonlin 2-no                           
   RPACOR =    0.000    partial core radius                                     
   POMASS =    1.000; ZVAL   =    1.000    mass and valenz                      
   RCORE  =    1.100    outmost cutoff radius                                   
   RWIGS  =    0.700; RWIGS  =    0.370    wigner-seitz radius (au A)           
   ENMAX  =  250.000; ENMIN  =  200.000 eV                                      
   RCLOC  =    0.701    cutoff for local pot                                    
   LCOR   =        T    correct aug charges                                     
   LPAW   =        T    paw PP                                                  
   EAUG   =  400.000                                                            
   RMAX   =    1.123    core radius for proj-oper                               
   RAUG   =    1.200    factor for augmentation sphere                          
   RDEP   =    1.112    radius for radial grids                                 
   RDEPT  =    0.926    core radius for aug-charge                              
                                                                                
   Atomic configuration                                                         
    2 entries                                                                   
     n  l   j            E        occ.                                          
     1  0  0.50        -6.4927   1.0000                                         
     2  1  0.50        -3.4015   0.0000                                         
   Description                                                                  
     l       E           TYP  RCUT    TYP  RCUT                                 
     0     -6.4927494     23  1.100                                             
     0      6.8029130     23  1.100                                             
     1     -4.0817478     23  1.100                                             
  local pseudopotential read in
  atomic valenz-charges read in
  non local Contribution for L=           0  read in
    real space projection operators read in
  non local Contribution for L=           0  read in
    real space projection operators read in
  non local Contribution for L=           1  read in
    real space projection operators read in
    PAW grid and wavefunctions read in

   number of l-projection  operators is LMAX  =           3
   number of lm-projection operators is LMMAX =           5

 POTCAR:    PAW_PBE O 08Apr2002                   
   VRHFIN =O: s2p4                                                              
   LEXCH  = PE                                                                  
   EATOM  =   432.3788 eV,   31.7789 Ry                                         
                                                                                
   TITEL  = PAW_PBE O 08Apr2002                                                 
   LULTRA =        F    use ultrasoft PP ?                                      
   IUNSCR =        1    unscreen: 0-lin 1-nonlin 2-no                           
   RPACOR =    1.200    partial core radius                                     
   POMASS =   16.000; ZVAL   =    6.000    mass and valenz                      
   RCORE  =    1.520    outmost cutoff radius                                   
   RWIGS  =    1.550; RWIGS  =    0.820    wigner-seitz radius (au A)           
   ENMAX  =  400.000; ENMIN  =  300.000 eV                                      
   ICORE  =        2    local potential                                         
   LCOR   =        T    correct aug charges                                     
   LPAW   =        T    paw PP                                                  
   EAUG   =  605.392                                                            
   DEXC   =    0.000                                                            
   RMAX   =    1.553    core radius for proj-oper                               
   RAUG   =    1.300    factor for augmentation sphere                          
   RDEP   =    1.550    radius for radial grids                                 
   RDEPT  =    1.329    core radius for aug-charge                              
                                                                                
   Atomic configuration                                                         
    4 entries                                                                   
     n  l   j            E        occ.                                          
     1  0  0.50      -514.6923   2.0000                                         
     2  0  0.50       -23.9615   2.0000                                         
     2  1  0.50        -9.0305   4.0000                                         
     3  2  1.50        -9.5241   0.0000                                         
   Description                                                                  
     l       E           TYP  RCUT    TYP  RCUT                                 
     0    -23.9615318     23  1.200                                             
     0     -9.5240782     23  1.200                                             
     1     -9.0304911     23  1.520                                             
     1      8.1634956     23  1.520                                             
     2     -9.5240782      7  1.500                                             
  local pseudopotential read in
  partial core-charges read in
  partial kinetic energy density read in
  kinetic energy density of atom read in
  atomic valenz-charges read in
  non local Contribution for L=           0  read in
    real space projection operators read in
  non local Contribution for L=           0  read in
    real space projection operators read in
  non local Contribution for L=           1  read in
    real space projection operators read in
  non local Contribution for L=           1  read in
    real space projection operators read in
    PAW grid and wavefunctions read in

   number of l-projection  operators is LMAX  =           4
   number of lm-projection operators is LMMAX =           8

 POTCAR:    PAW_PBE Si 05Jan2001                  
   VRHFIN =Si: s2p2                                                             
   LEXCH  = PE                                                                  
   EATOM  =   103.0669 eV,    7.5752 Ry                                         
                                                                                
   TITEL  = PAW_PBE Si 05Jan2001                                                
   LULTRA =        F    use ultrasoft PP ?                                      
   IUNSCR =        1    unscreen: 0-lin 1-nonlin 2-no                           
   RPACOR =    1.500    partial core radius                                     
   POMASS =   28.085; ZVAL   =    4.000    mass and valenz                      
   RCORE  =    1.900    outmost cutoff radius                                   
   RWIGS  =    2.480; RWIGS  =    1.312    wigner-seitz radius (au A)           
   ENMAX  =  245.345; ENMIN  =  184.009 eV                                      
   ICORE  =        2    local potential                                         
   LCOR   =        T    correct aug charges                                     
   LPAW   =        T    paw PP                                                  
   EAUG   =  322.069                                                            
   DEXC   =    0.000                                                            
   RMAX   =    1.950    core radius for proj-oper                               
   RAUG   =    1.300    factor for augmentation sphere                          
   RDEP   =    1.993    radius for radial grids                                 
   RDEPT  =    1.837    core radius for aug-charge                              
                                                                                
   Atomic configuration                                                         
    6 entries                                                                   
     n  l   j            E        occ.                                          
     1  0  0.50     -1785.8828   2.0000                                         
     2  0  0.50      -139.4969   2.0000                                         
     2  1  1.50       -95.5546   6.0000                                         
     3  0  0.50       -10.8127   2.0000                                         
     3  1  0.50        -4.0811   2.0000                                         
     3  2  1.50        -4.0817   0.0000                                         
   Description                                                                  
     l       E           TYP  RCUT    TYP  RCUT                                 
     0    -10.8127223     23  1.900                                             
     0     -7.6451159     23  1.900                                             
     1     -4.0811372     23  1.900                                             
     1      2.4879257     23  1.900                                             
     2     -4.0817478      7  1.900                                             
  local pseudopotential read in
  partial core-charges read in
  partial kinetic energy density read in
  atomic valenz-charges read in
  non local Contribution for L=           0  read in
    real space projection operators read in
  non local Contribution for L=           0  read in
    real space projection operators read in
  non local Contribution for L=           1  read in
    real space projection operators read in
  non local Contribution for L=           1  read in
    real space projection operators read in
    PAW grid and wavefunctions read in

   number of l-projection  operators is LMAX  =           4
   number of lm-projection operators is LMMAX =           8

 POTCAR:    PAW_PBE W 08Apr2002                   
   VRHFIN =W : 6s5d                                                             
   LEXCH  = PE                                                                  
   EATOM  =   204.6103 eV,   15.0384 Ry                                         
                                                                                
   TITEL  = PAW_PBE W 08Apr2002                                                 
   LULTRA =        F    use ultrasoft PP ?                                      
   IUNSCR =        1    unscreen: 0-lin 1-nonlin 2-no                           
   RPACOR =    2.330    partial core radius                                     
   POMASS =  183.850; ZVAL   =    6.000    mass and valenz                      
   RCORE  =    2.750    outmost cutoff radius                                   
   RWIGS  =    2.750; RWIGS  =    1.455    wigner-seitz radius (au A)           
   ENMAX  =  223.057; ENMIN  =  167.293 eV                                      
   RCLOC  =    2.147    cutoff for local pot                                    
   LCOR   =        T    correct aug charges                                     
   LPAW   =        T    paw PP                                                  
   EAUG   =  373.438                                                            
   DEXC   =    0.000                                                            
   RMAX   =    2.801    core radius for proj-oper                               
   RAUG   =    1.300    factor for augmentation sphere                          
   RDEP   =    2.886    radius for radial grids                                 
   RDEPT  =    2.230    core radius for aug-charge                              
                                                                                
   Atomic configuration                                                         
   16 entries                                                                   
     n  l   j            E        occ.                                          
     1  0  0.50    -69465.5836   2.0000                                         
     2  0  0.50    -11986.2642   2.0000                                         
     2  1  1.50    -10479.8616   6.0000                                         
     3  0  0.50     -2759.0758   2.0000                                         
     3  1  1.50     -2313.1857   6.0000                                         
     3  2  2.50     -1801.1185  10.0000                                         
     4  0  0.50      -567.6791   2.0000                                         
     4  1  1.50      -421.4694   6.0000                                         
     4  2  2.50      -236.3473  10.0000                                         
     4  3  3.50       -31.2666  14.0000                                         
     5  0  0.50       -77.1085   2.0000                                         
     5  1  1.50       -41.3856   6.0000                                         
     5  2  2.50        -3.3185   5.0000                                         
     6  0  0.50        -5.1438   1.0000                                         
     6  1  0.50        -3.8096   0.0000                                         
     5  3  2.50        -1.3606   0.0000                                         
   Description                                                                  
     l       E           TYP  RCUT    TYP  RCUT                                 
     2     -3.3185288     23  2.500                                             
     2     -1.5965414     23  2.500                                             
     0     -5.1438054     23  2.500                                             
     0      4.9117504     23  2.500                                             
     1      2.7211652     23  2.750                                             
     1     27.2116520     23  2.750                                             
  local pseudopotential read in
  partial core-charges read in
  partial kinetic energy density read in
  atomic valenz-charges read in
  non local Contribution for L=           2  read in
    real space projection operators read in
  non local Contribution for L=           2  read in
    real space projection operators read in
  non local Contribution for L=           0  read in
    real space projection operators read in
  non local Contribution for L=           0  read in
    real space projection operators read in
  non local Contribution for L=           1  read in
    real space projection operators read in
  non local Contribution for L=           1  read in
    real space projection operators read in
    PAW grid and wavefunctions read in

   number of l-projection  operators is LMAX  =           6
   number of lm-projection operators is LMMAX =          18

 Optimization of the real space projectors (new method)

 maximal supplied QI-value         = 25.13
 optimisation between [QCUT,QGAM] = [ 11.31, 22.87] = [ 35.82,146.48] Ry 
 Optimized for a Real-space Cutoff    1.00 Angstroem

   l    n(q)    QCUT    max X(q) W(low)/X(q) W(high)/X(q)  e(spline) 
   0      7    11.310   115.676    0.43E-03    0.13E-02    0.19E-06
   0      7    11.310    87.132    0.43E-03    0.13E-02    0.18E-06
   1      6    11.310     4.429    0.42E-03    0.74E-03    0.11E-06
   1      6    11.310     2.733    0.34E-03    0.55E-03    0.92E-07
 Optimization of the real space projectors (new method)

 maximal supplied QI-value         = 34.20
 optimisation between [QCUT,QGAM] = [ 11.29, 22.57] = [ 35.68,142.71] Ry 
 Optimized for a Real-space Cutoff    1.16 Angstroem

   l    n(q)    QCUT    max X(q) W(low)/X(q) W(high)/X(q)  e(spline) 
   0      8    11.287    19.460    0.40E-03    0.73E-03    0.16E-06
   0      8    11.287    12.209    0.38E-03    0.70E-03    0.15E-06
   1      7    11.287     4.655    0.22E-03    0.25E-04    0.22E-06
 Optimization of the real space projectors (new method)

 maximal supplied QI-value         = 24.76
 optimisation between [QCUT,QGAM] = [ 11.39, 22.77] = [ 36.31,145.25] Ry 
 Optimized for a Real-space Cutoff    1.00 Angstroem

   l    n(q)    QCUT    max X(q) W(low)/X(q) W(high)/X(q)  e(spline) 
   0      7    11.387    20.381    0.39E-03    0.13E-02    0.15E-06
   0      7    11.387    15.268    0.42E-03    0.14E-02    0.17E-06
   1      6    11.387     5.964    0.41E-03    0.11E-02    0.17E-06
   1      6    11.387     5.382    0.39E-03    0.87E-03    0.15E-06
 Optimization of the real space projectors (new method)

 maximal supplied QI-value         = 19.84
 optimisation between [QCUT,QGAM] = [ 11.31, 22.82] = [ 35.82,145.81] Ry 
 Optimized for a Real-space Cutoff    1.16 Angstroem

   l    n(q)    QCUT    max X(q) W(low)/X(q) W(high)/X(q)  e(spline) 
   0      8    11.310   159.560    0.27E-03    0.30E-03    0.39E-07
   0      8    11.310   115.863    0.27E-03    0.30E-03    0.38E-07
   1      7    11.310    88.339    0.28E-03    0.28E-03    0.77E-07
   1      7    11.310    48.592    0.27E-03    0.27E-03    0.74E-07
 Optimization of the real space projectors (new method)

 maximal supplied QI-value         = 13.61
 optimisation between [QCUT,QGAM] = [ 11.43, 22.86] = [ 36.58,146.31] Ry 
 Optimized for a Real-space Cutoff    1.56 Angstroem

   l    n(q)    QCUT    max X(q) W(low)/X(q) W(high)/X(q)  e(spline) 
   2     10    11.429   130.855    0.22E-03    0.64E-03    0.11E-05
   2     10    11.429   114.007    0.22E-03    0.64E-03    0.11E-05
   0     11    11.429    84.709    0.39E-04    0.67E-04    0.23E-06
   0     11    11.429    49.163    0.35E-04    0.62E-04    0.21E-06
   1     10    11.429    15.765    0.84E-04    0.15E-03    0.24E-06
   1     10    11.429    10.638    0.58E-04    0.12E-03    0.19E-06

 ----------------------------------------------------------------------------- 
|                                                                             |
|  ADVICE TO THIS USER RUNNING 'VASP/VAMP'   (HEAR YOUR MASTER'S VOICE ...):  |
|                                                                             |
|      You enforced a specific xc-type in the INCAR file,                     |
|      a different type was found on the POTCAR file                          |
|          I HOPE YOU KNOW, WHAT YOU ARE  DOING                               |
|                                                                             |
 ----------------------------------------------------------------------------- 

  PAW_PBE C 08Apr2002                   :
 energy of atom  1       EATOM= -147.1560
 kinetic energy error for atom=    0.0076 (will be added to EATOM!!)
  PAW_PBE H 15Jun2001                   :
 energy of atom  2       EATOM=  -12.4884
 kinetic energy error for atom=    0.0020 (will be added to EATOM!!)
  PAW_PBE O 08Apr2002                   :
 energy of atom  3       EATOM= -432.3788
 kinetic energy error for atom=    0.0224 (will be added to EATOM!!)
  PAW_PBE Si 05Jan2001                  :
 energy of atom  4       EATOM= -103.0669
 kinetic energy error for atom=    0.0006 (will be added to EATOM!!)
  PAW_PBE W 08Apr2002                   :
 energy of atom  5       EATOM= -204.6103
 kinetic energy error for atom=    0.0017 (will be added to EATOM!!)


 POSCAR:  C  H  O Si  W                          
  positions in direct lattice
  velocities in cartesian coordinates
 exchange correlation table for  LEXCH =        9
   RHO(1)=    0.500       N(1)  =     2000
   RHO(2)=  100.500       N(2)  =     4000

 VTST: version 3.2, (02/03/18)

 CHAIN: initializing optimizer
 
 OPT: Using VASP QUASI-newton optimizer
 CHAIN: Read ICHAIN            0

 POSCAR:  C  H  O Si  W                          
  positions in direct lattice
  velocities in cartesian coordinates



--------------------------------------------------------------------------------------------------------


 ion  position               nearest neighbor table
   1  0.516  0.530  0.752-  49 1.10   3 1.52 277 1.92
   2  0.530  0.355  0.736-  50 1.11 210 1.24   4 1.49
   3  0.573  0.568  0.744-  52 1.10  51 1.10  53 1.11   1 1.52
   4  0.540  0.274  0.745-  55 1.10  54 1.10  56 1.11   2 1.49
   5  0.767  0.100  0.653- 131 0.97
   6  0.926  0.279  0.356-  79 0.98
   7  0.793  0.207  0.373- 114 0.97
   8  0.975  0.944  0.325- 123 0.97
   9  0.626  0.963  0.375- 125 0.98
  10  0.821  0.995  0.369- 143 0.97
  11  0.750  0.141  0.458- 181 0.98
  12  0.915  0.249  0.510- 186 0.97
  13  0.583  0.304  0.306- 191 0.97
  14  0.892  0.335  0.616-  97 0.98
  15  0.595  0.363  0.612- 142 0.97
  16  0.594  0.871  0.578- 184 0.99
  17  0.034  0.338  0.653- 190 0.97
  18  0.935  0.420  0.454- 179 0.98
  19  0.746  0.530  0.422-  93 1.00
  20  0.802  0.385  0.637- 171 0.97
  21  0.591  0.569  0.378- 105 0.99
  22  0.718  0.646  0.383- 128 0.99
  23  0.841  0.542  0.420- 134 0.98
  24  0.005  0.604  0.358- 139 0.97
  25  0.828  0.712  0.468- 180 0.99
  26  0.880  0.599  0.720-  59 0.97
  27  0.520  0.986  0.422- 141 0.99
  28  0.223  0.980  0.393- 182 1.00
  29  0.216  0.238  0.319- 197 0.99
  30  0.158  0.330  0.279- 188 0.97
  31  0.342  0.156  0.331- 189 0.98
  32  0.223  0.046  0.323- 196 0.97
  33  0.511  0.827  0.547- 199 0.97
  34  0.373  0.238  0.648-  84 0.97
  35  0.243  0.094  0.599- 135 0.98
  36  0.315  0.487  0.442-  58 0.99
  37  0.409  0.439  0.406- 147 0.98
  38  0.398  0.793  0.389- 185 0.97
  39  0.244  0.655  0.294- 193 0.97
  40  0.312  0.418  0.369- 194 0.98
  41  0.405  0.584  0.339- 195 0.97
  42  0.139  0.488  0.352- 187 0.98
  43  0.593  0.698  0.352-  88 0.97
  44  0.469  0.861  0.444- 198 0.99
  45  0.124  0.326  0.615- 107 0.97
  46  0.076  0.663  0.647- 138 0.97
  47  0.246  0.393  0.682- 183 0.97
  48  0.249  0.815  0.670- 192 0.97
  49  0.499  0.530  0.790-   1 1.10
  50  0.559  0.395  0.754-   2 1.11
  51  0.602  0.558  0.776-   3 1.10
  52  0.594  0.552  0.710-   3 1.10
  53  0.566  0.628  0.742-   3 1.11
  54  0.551  0.266  0.784-   4 1.10
  55  0.502  0.241  0.734-   4 1.10
  56  0.577  0.257  0.723-   4 1.11
  57  0.369  0.648  0.439- 231 1.66 266 1.68
  58  0.347  0.504  0.420-  36 0.99 266 1.67
  59  0.861  0.566  0.697-  26 0.97 237 1.64
  60  0.349  0.962  0.530- 242 1.68 275 1.70
  61  0.033  0.932  0.529- 257 1.63 268 1.66
  62  0.636  0.079  0.489- 235 1.60 224 1.65
  63  0.069  0.052  0.395- 223 1.64 215 1.65
  64  0.452  0.130  0.421- 240 1.65 221 1.65
  65  0.806  0.214  0.483- 239 1.67 236 1.69
  66  0.974  0.182  0.599- 217 1.63 247 1.65
  67  0.275  0.299  0.449- 263 1.65 273 1.66
  68  0.556  0.775  0.442- 244 1.51 271 1.66
  69  0.391  0.975  0.620- 261 1.65 275 1.66
  70  0.178  0.350  0.405- 263 1.66 238 1.67
  71  0.867  0.684  0.637- 241 1.64 237 1.64
  72  0.866  0.967  0.467- 233 1.60 248 1.65
  73  0.301  0.761  0.458- 231 1.65 245 1.67
  74  0.422  0.261  0.380- 240 1.67 260 1.67
  75  0.811  0.465  0.520- 267 1.63 214 1.64
  76  0.984  0.073  0.521- 257 1.68 217 1.69
  77  0.504  0.470  0.633- 276 1.65 277 2.04
  78  0.035  0.920  0.429- 268 1.64 215 1.65
  79  0.963  0.303  0.351-   6 0.98 216 1.65
  80  0.070  0.336  0.376- 216 1.64 238 1.65
  81  0.208  0.729  0.395- 245 1.66 255 1.67
  82  0.039  0.419  0.499- 270 1.64 243 1.65
  83  0.240  0.287  0.588- 251 1.63 228 1.63
  84  0.400  0.197  0.646-  34 0.97 222 1.64
  85  0.454  0.567  0.577- 276 1.68 253 1.69
  86  0.910  0.749  0.558- 241 1.64 220 1.65
  87  0.869  0.108  0.442- 248 1.64 236 1.65
  88  0.573  0.667  0.376-  43 0.97 244 1.68
  89  0.142  0.159  0.376- 269 1.65 223 1.65
  90  0.351  0.766  0.607- 213 1.62 254 1.64
  91  0.911  0.845  0.483- 233 1.62 220 1.66
  92  0.061  0.537  0.442- 270 1.66 212 1.67
  93  0.708  0.555  0.420-  19 1.00 226 1.67
  94  0.075  0.817  0.483- 268 1.50 250 1.65
  95  0.700  0.828  0.433- 225 1.53 258 1.65
  96  0.730  0.049  0.543- 224 1.64 259 1.64
  97  0.919  0.302  0.632-  14 0.98 247 1.63
  98  0.735  0.852  0.613- 232 1.66 229 1.68
  99  0.625  0.527  0.486- 234 1.59 226 1.68
 100  0.557  0.630  0.467- 244 1.52 234 1.64
 101  0.426  0.249  0.556- 222 1.68 265 1.69
 102  0.978  0.728  0.477- 250 1.65 220 1.65
 103  0.654  0.594  0.633- 272 1.64 218 1.67
 104  0.396  0.748  0.515- 231 1.65 213 1.65
 105  0.603  0.518  0.386-  21 0.99 226 1.65
 106  0.721  0.630  0.557- 256 1.62 272 1.64
 107  0.150  0.366  0.623-  45 0.97 228 1.64
 108  0.066  0.548  0.542- 270 1.63 274 1.64
 109  0.819  0.884  0.536- 233 1.65 232 1.67
 110  0.828  0.355  0.452- 239 1.65 214 1.65
 111  0.528  0.298  0.532- 265 1.62 246 1.63
 112  0.737  0.499  0.596- 272 1.66 267 1.66
 113  0.557  0.172  0.395- 252 1.59 221 1.64
 114  0.806  0.256  0.383-   7 0.97 239 1.67
 115  0.237  0.953  0.508- 242 1.58 227 1.67
 116  0.693  0.775  0.542- 256 1.63 229 1.64
 117  0.923  0.950  0.553- 257 1.65 233 1.65
 118  0.526  0.318  0.399- 252 1.45 260 1.66
 119  0.467  0.993  0.546- 261 1.69 262 1.69
 120  0.838  0.095  0.540- 236 1.66 259 1.66
 121  0.538  0.116  0.486- 235 1.60 221 1.67
 122  0.350  0.187  0.440- 273 1.63 240 1.65
 123  0.012  0.962  0.335-   8 0.97 215 1.65
 124  0.449  0.597  0.672- 253 1.62 277 1.98
 125  0.655  0.925  0.379-   9 0.98 225 1.66
 126  0.076  0.686  0.436- 212 1.65 250 1.66
 127  0.455  0.406  0.553- 276 1.69 265 1.69
 128  0.719  0.700  0.380-  22 0.99 258 1.65
 129  0.453  0.708  0.598- 213 1.62 253 1.64
 130  0.753  0.709  0.476- 256 1.63 258 1.69
 131  0.779  0.120  0.621-   5 0.97 259 1.64
 132  0.993  0.308  0.448- 243 1.66 216 1.68
 133  0.538  0.508  0.536- 276 1.65 234 1.65
 134  0.817  0.499  0.423-  23 0.98 214 1.69
 135  0.236  0.146  0.606-  35 0.98 251 1.62
 136  0.204  0.831  0.471- 227 1.50 245 1.63
 137  0.240  0.559  0.523- 230 1.65 219 1.66
 138  0.061  0.626  0.624-  46 0.97 274 1.64
 139  0.046  0.602  0.354-  24 0.97 212 1.65
 140  0.801  0.978  0.606- 232 1.66 259 1.68
 141  0.538  0.028  0.405-  27 0.99 221 1.66
 142  0.605  0.312  0.605-  15 0.97 246 1.65
 143  0.862  0.004  0.369-  10 0.97 248 1.66
 144  0.095  0.149  0.467- 249 1.62 223 1.65
 145  0.171  0.205  0.531- 249 1.61 251 1.63
 146  0.641  0.704  0.455- 244 1.65 258 1.66
 147  0.437  0.410  0.386-  37 0.98 260 1.66
 148  0.574  0.059  0.571- 262 1.62 235 1.65
 149  0.151  0.593  0.389- 255 1.68 212 1.68
 150  0.268  0.602  0.392- 266 1.65 255 1.67
 151  0.440  0.322  0.470- 265 1.65 260 1.69
 152  0.238  0.159  0.430- 269 1.65 273 1.67
 153  0.073  0.149  0.562- 249 1.64 217 1.64
 154  0.845  0.545  0.600- 267 1.66 237 1.66
 155  0.621  0.280  0.411- 264 1.65 252 1.66
 156  0.603  0.892  0.467- 271 1.29 225 1.67
 157  0.031  0.195  0.389- 216 1.66 223 1.66
 158  0.608  0.195  0.548- 235 1.62 246 1.64
 159  0.133  0.938  0.479- 268 1.65 227 1.66
 160  0.080  0.280  0.512- 243 1.64 249 1.65
 161  0.372  0.108  0.570- 275 1.64 222 1.69
 162  0.066  0.696  0.536- 250 1.63 274 1.63
 163  0.666  0.415  0.430- 226 1.65 264 1.65
 164  0.800  0.730  0.564- 256 1.61 241 1.63
 165  0.704  0.957  0.470- 224 1.65 225 1.66
 166  0.600  0.637  0.552- 234 1.63 218 1.63
 167  0.723  0.294  0.452- 239 1.63 264 1.64
 168  0.977  0.314  0.547- 243 1.64 247 1.67
 169  0.158  0.630  0.571- 230 1.63 274 1.65
 170  0.633  0.327  0.508- 246 1.62 264 1.65
 171  0.821  0.397  0.606-  20 0.97 267 1.66
 172  0.959  0.027  0.417- 248 1.64 215 1.65
 173  0.282  0.195  0.519- 273 1.63 251 1.65
 174  0.249  0.443  0.461- 219 1.66 263 1.71
 175  0.274  0.851  0.568- 242 1.64 254 1.65
 176  0.204  0.686  0.487- 230 1.63 245 1.66
 177  0.147  0.476  0.493- 219 1.63 270 1.65
 178  0.224  0.423  0.557- 219 1.61 228 1.63
 179  0.911  0.453  0.474-  18 0.98 214 1.65
 180  0.870  0.705  0.464-  25 0.99 220 1.65
 181  0.738  0.093  0.445-  11 0.98 224 1.66
 182  0.222  0.930  0.408-  28 1.00 227 1.64
 183  0.257  0.404  0.648-  47 0.97 228 1.64
 184  0.631  0.883  0.593-  16 0.99 229 1.62
 185  0.410  0.789  0.423-  38 0.97 231 1.68
 186  0.918  0.196  0.508-  12 0.97 236 1.65
 187  0.133  0.444  0.332-  42 0.98 238 1.65
 188  0.155  0.304  0.311-  30 0.97 238 1.69
 189  0.373  0.131  0.348-  31 0.98 240 1.66
 190  0.035  0.293  0.633-  17 0.97 247 1.66
 191  0.573  0.257  0.320-  13 0.97 252 1.66
 192  0.246  0.772  0.650-  48 0.97 254 1.64
 193  0.207  0.648  0.310-  39 0.97 255 1.65
 194  0.275  0.392  0.367-  40 0.98 263 1.66
 195  0.365  0.598  0.342-  41 0.97 266 1.67
 196  0.226  0.056  0.358-  32 0.97 269 1.69
 197  0.241  0.196  0.329-  29 0.99 269 1.66
 198  0.501  0.892  0.455-  44 0.99 271 1.60
 199  0.550  0.828  0.534-  33 0.97 271 1.67
 200  0.544  0.646  0.633- 218 1.64 253 1.68
 201  0.478  0.124  0.597- 222 1.65 262 1.65
 202  0.262  0.696  0.569- 254 1.65 230 1.65
 203  0.442  0.850  0.581- 261 1.65 213 1.69
 204  0.765  0.617  0.650- 272 1.65 237 1.66
 205  0.845  0.832  0.623- 241 1.66 232 1.68
 206  0.640  0.739  0.622- 218 1.68 229 1.71
 207  0.008  0.033  0.603- 217 1.69 257 1.69
 208  0.284  0.004  0.593- 275 1.70 242 1.70
 209  0.503  0.973  0.629- 261 1.69 262 1.70
 210  0.491  0.378  0.709-   2 1.24 277 2.26
 211  0.405  0.475  0.727- 277 1.72
 212  0.083  0.606  0.406- 139 1.65 126 1.65  92 1.67 149 1.68 270 3.13
 213  0.409  0.767  0.574- 129 1.62  90 1.62 104 1.65 203 1.69 254 3.05
 214  0.842  0.441  0.468-  75 1.64 110 1.65 179 1.65 134 1.69
 215  0.017  0.990  0.394-  63 1.65 172 1.65  78 1.65 123 1.65 268 3.11 223 3.13
 216  0.015  0.284  0.391-  80 1.64  79 1.65 157 1.66 132 1.68 243 3.11 223 3.11
 217  0.010  0.115  0.572-  66 1.63 153 1.64  76 1.69 207 1.69 257 2.39 249 3.04 247 3.08
 218  0.609  0.658  0.611- 166 1.63 200 1.64 103 1.67 206 1.68 272 2.89 234 3.12
 219  0.214  0.476  0.510- 178 1.61 177 1.63 137 1.66 174 1.66 230 3.11 263 3.14
 220  0.915  0.756  0.496- 102 1.65 180 1.65  86 1.65  91 1.66 233 2.99 241 3.03
 221  0.521  0.110  0.426- 113 1.64  64 1.65 141 1.66 121 1.67 252 3.08 235 3.12
 222  0.419  0.172  0.590-  84 1.64 201 1.65 101 1.68 161 1.69 262 3.14 275 3.14
 223  0.083  0.139  0.407-  63 1.64 144 1.65  89 1.65 157 1.66 216 3.11 215 3.13 269 3.14
 224  0.702  0.045  0.487-  96 1.64 165 1.65  62 1.65 181 1.66 235 3.09 225 3.10
 225  0.665  0.898  0.437-  95 1.53 165 1.66 125 1.66 156 1.67 271 2.83 258 3.06 224 3.10
 226  0.650  0.504  0.430- 105 1.65 163 1.65  93 1.67  99 1.68 234 3.08
 227  0.198  0.912  0.464- 136 1.50 182 1.64 159 1.66 115 1.67 245 3.01 268 3.07 242 3.07
 228  0.216  0.368  0.604- 178 1.63  83 1.63 107 1.64 183 1.64
 229  0.674  0.813  0.595- 184 1.62 116 1.64  98 1.68 206 1.71 256 2.91
 230  0.217  0.642  0.539- 176 1.63 169 1.63 202 1.65 137 1.65 245 3.09 219 3.11 274 3.12
 231  0.369  0.735  0.459- 104 1.65  73 1.65  57 1.66 185 1.68
 232  0.797  0.888  0.596- 140 1.66  98 1.66 109 1.67 205 1.68 241 2.85 233 2.99
 233  0.880  0.912  0.512-  72 1.60  91 1.62 109 1.65 117 1.65 220 2.99 232 2.99 257 3.05 248 3.13

 234  0.577  0.575  0.513-  99 1.59 166 1.63 100 1.64 133 1.65 244 3.01 226 3.08 218 3.12
 235  0.590  0.115  0.525-  62 1.60 121 1.60 158 1.62 148 1.65 262 2.85 224 3.09 246 3.11 221 3.12

 236  0.858  0.152  0.495- 186 1.65  87 1.65 120 1.66  65 1.69 248 3.07 239 3.15
 237  0.835  0.604  0.646-  59 1.64  71 1.64 204 1.66 154 1.66 272 2.93 241 3.00 267 3.01
 238  0.134  0.360  0.357- 187 1.65  80 1.65  70 1.67 188 1.69 263 3.11
 239  0.791  0.280  0.442- 167 1.63 110 1.65 114 1.67  65 1.67 236 3.15
 240  0.399  0.177  0.396-  64 1.65 122 1.65 189 1.66  74 1.67 260 3.07
 241  0.856  0.750  0.596- 164 1.63  86 1.64  71 1.64 205 1.66 232 2.85 237 3.00 220 3.03
 242  0.283  0.936  0.550- 115 1.58 175 1.64  60 1.68 208 1.70 275 2.38 227 3.07
 243  0.023  0.330  0.502- 160 1.64 168 1.64  82 1.65 132 1.66 247 3.10 216 3.11 249 3.13
 244  0.575  0.695  0.436-  68 1.51 100 1.52 146 1.65  88 1.68 234 3.01 271 3.06 258 3.10
 245  0.230  0.753  0.452- 136 1.63 176 1.66  81 1.66  73 1.67 255 2.97 227 3.01 230 3.09
 246  0.594  0.284  0.548- 170 1.62 111 1.63 158 1.64 142 1.65 235 3.11 264 3.14
 247  0.976  0.273  0.603-  97 1.63  66 1.65 190 1.66 168 1.67 217 3.08 243 3.10
 248  0.889  0.025  0.424-  87 1.64 172 1.64  72 1.65 143 1.66 236 3.07 233 3.13
 249  0.105  0.195  0.518- 145 1.61 144 1.62 153 1.64 160 1.65 217 3.04 243 3.13
 250  0.048  0.733  0.483- 162 1.63 102 1.65  94 1.65 126 1.66 268 3.05
 251  0.232  0.207  0.561- 135 1.62  83 1.63 145 1.63 173 1.65 273 3.03
 252  0.561  0.258  0.381- 118 1.45 113 1.59 155 1.66 191 1.66 260 2.87 221 3.08
 253  0.475  0.629  0.620- 124 1.62 129 1.64 200 1.68  85 1.69 276 2.91 277 3.17
 254  0.282  0.771  0.598- 192 1.64  90 1.64 202 1.65 175 1.65 213 3.05
 255  0.209  0.643  0.372- 193 1.65 150 1.67  81 1.67 149 1.68 245 2.97
 256  0.741  0.710  0.536- 164 1.61 106 1.62 130 1.63 116 1.63 229 2.91 258 2.91 272 3.06
 257  0.986  0.990  0.550-  61 1.63 117 1.65  76 1.68 207 1.69 217 2.39 233 3.05
 258  0.703  0.737  0.434-  95 1.65 128 1.65 146 1.66 130 1.69 256 2.91 225 3.06 244 3.10
 259  0.788  0.059  0.577-  96 1.64 131 1.64 120 1.66 140 1.68
 260  0.456  0.328  0.409- 147 1.66 118 1.66  74 1.67 151 1.69 252 2.87 240 3.07
 261  0.449  0.938  0.594- 203 1.65  69 1.65 119 1.69 209 1.69 262 2.36 275 2.74
 262  0.508  0.043  0.586- 148 1.62 201 1.65 119 1.69 209 1.70 261 2.36 235 2.85 222 3.14
 263  0.244  0.370  0.421-  67 1.65  70 1.66 194 1.66 174 1.71 238 3.11 219 3.14
 264  0.659  0.330  0.450- 167 1.64 155 1.65 163 1.65 170 1.65 246 3.14
 265  0.461  0.320  0.529- 111 1.62 151 1.65 101 1.69 127 1.69
 266  0.337  0.590  0.399- 150 1.65 195 1.67  58 1.67  57 1.68
 267  0.804  0.477  0.580-  75 1.63 171 1.66 154 1.66 112 1.66 272 2.90 237 3.01
 268  0.069  0.899  0.481-  94 1.50  78 1.64 159 1.65  61 1.66 250 3.05 227 3.07 215 3.11
 269  0.212  0.144  0.374-  89 1.65 152 1.65 197 1.66 196 1.69 273 3.12 223 3.14
 270  0.078  0.494  0.495- 108 1.63  82 1.64 177 1.65  92 1.66 274 3.10 212 3.13
 271  0.558  0.852  0.475- 156 1.29 198 1.60  68 1.66 199 1.67 225 2.83 244 3.06
 272  0.718  0.584  0.610- 106 1.64 103 1.64 204 1.65 112 1.66 218 2.89 267 2.90 237 2.93 256 3.06

 273  0.287  0.210  0.459- 173 1.63 122 1.63  67 1.66 152 1.67 251 3.03 269 3.12
 274  0.088  0.625  0.568- 162 1.63 138 1.64 108 1.64 169 1.65 270 3.10 230 3.12
 275  0.353  0.022  0.578- 161 1.64  69 1.66 208 1.70  60 1.70 242 2.38 261 2.74 222 3.14
 276  0.486  0.484  0.574-  77 1.65 133 1.65  85 1.68 127 1.69 253 2.91
 277  0.468  0.498  0.698- 211 1.72   1 1.92 124 1.98  77 2.04 210 2.26 253 3.17

  LATTYP: Found a simple orthorhombic cell.
 ALAT       =    18.1212369514
 B/A-ratio  =     1.2919258579
 C/A-ratio  =     1.4835282260
  
  Lattice vectors:
  
 A1 = (   0.0000000000, -18.1212369514,   0.0000000000)
 A2 = ( -23.4112945954,   0.0000000000,   0.0000000000)
 A3 = (   0.0000000000,   0.0000000000, -26.8833665073)


Analysis of symmetry for initial positions (statically):
=====================================================================
 Subroutine PRICEL returns:
 Original cell was already a primitive cell.
 

 Routine SETGRP: Setting up the symmetry group for a 
 simple orthorhombic supercell.


 Subroutine GETGRP returns: Found  1 space group operations
 (whereof  1 operations were pure point group operations)
 out of a pool of  8 trial point group operations.


The static configuration has the point symmetry C_1 .


Analysis of symmetry for dynamics (positions and initial velocities):
=====================================================================
 Subroutine PRICEL returns:
 Original cell was already a primitive cell.
 

 Routine SETGRP: Setting up the symmetry group for a 
 simple orthorhombic supercell.


 Subroutine GETGRP returns: Found  1 space group operations
 (whereof  1 operations were pure point group operations)
 out of a pool of  8 trial point group operations.


The dynamic configuration has the point symmetry C_1 .


Analysis of constrained symmetry for selective dynamics:
=====================================================================
 Subroutine PRICEL returns:
 Original cell was already a primitive cell.
 

 Routine SETGRP: Setting up the symmetry group for a 
 simple orthorhombic supercell.


 Subroutine GETGRP returns: Found  1 space group operations
 (whereof  1 operations were pure point group operations)
 out of a pool of  8 trial point group operations.


The constrained configuration has the point symmetry C_1 .


 Subroutine INISYM returns: Found  1 space group operations
 (whereof  1 operations are pure point group operations),
 and found     1 'primitive' translations



 KPOINTS: KPOINTS created by Atomic Simulation Env

Automatic generation of k-mesh.
Space group operators:
 irot       det(A)        alpha          n_x          n_y          n_z        tau_x        tau_y        tau_z
    1     1.000000     0.000000     1.000000     0.000000     0.000000     0.000000     0.000000     0.000000
 
 Subroutine IBZKPT returns following result:
 ===========================================
 
 Found      5 irreducible k-points:
 
 Following reciprocal coordinates:
            Coordinates               Weight
  0.000000  0.000000  0.000000      1.000000
  0.333333  0.000000  0.000000      2.000000
  0.000000  0.333333  0.000000      2.000000
  0.333333  0.333333  0.000000      2.000000
 -0.333333  0.333333  0.000000      2.000000
 
 Following cartesian coordinates:
            Coordinates               Weight
  0.000000  0.000000  0.000000      1.000000
  0.014238  0.000000  0.000000      2.000000
  0.000000  0.018395  0.000000      2.000000
  0.014238  0.018395  0.000000      2.000000
 -0.014238  0.018395  0.000000      2.000000
 


--------------------------------------------------------------------------------------------------------




 Dimension of arrays:
   k-points           NKPTS =      5   k-points in BZ     NKDIM =      5   number of bands    NBANDS=    776
   number of dos      NEDOS =    301   number of ions     NIONS =    277
   non local maximal  LDIM  =      6   non local SUM 2l+1 LMDIM =     18
   total plane-waves  NPLWV = ******
   max r-space proj   IRMAX =   2748   max aug-charges    IRDMAX=   9808
   dimension x,y,z NGX =   128 NGY =  100 NGZ =  150
   dimension x,y,z NGXF=   256 NGYF=  200 NGZF=  300
   support grid    NGXF=   256 NGYF=  200 NGZF=  300
   ions per type =               4  52 155  65   1
   NGX,Y,Z   is equivalent  to a cutoff of   9.09,  9.17,  9.28 a.u.
   NGXF,Y,Z  is equivalent  to a cutoff of  18.18, 18.35, 18.55 a.u.

 SYSTEM =  unknown system                          
 POSCAR =   C  H  O Si  W                          

 Startparameter for this run:
   NWRITE =      2    write-flag & timer
   PREC   = normal    normal or accurate (medium, high low for compatibility)
   ISTART =      0    job   : 0-new  1-cont  2-samecut
   ICHARG =      2    charge: 1-file 2-atom 10-const
   ISPIN  =      1    spin polarized calculation?
   LNONCOLLINEAR =      F non collinear calculations
   LSORBIT =      F    spin-orbit coupling
   INIWAV =      1    electr: 0-lowe 1-rand  2-diag
   LASPH  =      T    aspherical Exc in radial PAW
   METAGGA=      F    non-selfconsistent MetaGGA calc.

 Electronic Relaxation 1
   ENCUT  =  500.0 eV  36.75 Ry    6.06 a.u.  42.68 33.04 49.01*2*pi/ulx,y,z
   ENINI  =  500.0     initial cutoff
   ENAUG  =  644.9 eV  augmentation charge cutoff
   NELM   =     60;   NELMIN=  2; NELMDL=  0     # of ELM steps 
   EDIFF  = 0.1E-03   stopping-criterion for ELM
   LREAL  =      T    real-space projection
   NLSPLINE    = F    spline interpolate recip. space projectors
   LCOMPAT=      F    compatible to vasp.4.4
   GGA_COMPAT  = T    GGA compatible to vasp.4.4-vasp.4.6
   LMAXPAW     = -100 max onsite density
   LMAXMIX     =    2 max onsite mixed and CHGCAR
   VOSKOWN=      0    Vosko Wilk Nusair interpolation
   ROPT   =   -0.00050  -0.00050  -0.00050  -0.00050
   ROPT   =   -0.00050
 Ionic relaxation
   EDIFFG = -.5E-01   stopping-criterion for IOM
   NSW    =    150    number of steps for IOM
   NBLOCK =      1;   KBLOCK =    150    inner block; outer block 
   IBRION =      1    ionic relax: 0-MD 1-quasi-New 2-CG
   NFREE  =      0    steps in history (QN), initial steepest desc. (CG)
   ISIF   =      0    stress and relaxation
   IWAVPR =     11    prediction:  0-non 1-charg 2-wave 3-comb
   ISYM   =      2    0-nonsym 1-usesym 2-fastsym
   LCORR  =      T    Harris-Foulkes like correction to forces

   POTIM  = 0.5000    time-step for ionic-motion
   TEIN   =    0.0    initial temperature
   TEBEG  =    0.0;   TEEND  =   0.0 temperature during run
   SMASS  =  -3.00    Nose mass-parameter (am)
   estimated Nose-frequenzy (Omega)   =  0.10E-29 period in steps =****** mass=  -0.125E-25a.u.
   SCALEE = 1.0000    scale energy and forces
   NPACO  =    256;   APACO  = 16.0  distance and # of slots for P.C.
   PSTRESS=    0.0 pullay stress

  Mass of Ions in am
   POMASS =  12.01  1.00 16.00 28.09183.85
  Ionic Valenz
   ZVAL   =   4.00  1.00  6.00  4.00  6.00
  Atomic Wigner-Seitz radii
   RWIGS  =  -1.00 -1.00 -1.00 -1.00 -1.00
  virtual crystal weights 
   VCA    =   1.00  1.00  1.00  1.00  1.00
   NELECT =    1264.0000    total number of electrons
   NUPDOWN=      -1.0000    fix difference up-down

 DOS related values:
   EMIN   =  10.00;   EMAX   =-10.00  energy-range for DOS
   EFERMI =   0.00
   ISMEAR =     0;   SIGMA  =   0.20  broadening in eV -4-tet -1-fermi 0-gaus

 Electronic relaxation 2 (details)
   IALGO  =     68    algorithm
   LDIAG  =      T    sub-space diagonalisation (order eigenvalues)
   LSUBROT=      F    optimize rotation matrix (better conditioning)
   TURBO    =      0    0=normal 1=particle mesh
   IRESTART =      0    0=no restart 2=restart with 2 vectors
   NREBOOT  =      0    no. of reboots
   NMIN     =      0    reboot dimension
   EREF     =   0.00    reference energy to select bands
   IMIX   =      4    mixing-type and parameters
     AMIX     =   0.40;   BMIX     =  1.00
     AMIX_MAG =   1.60;   BMIX_MAG =  1.00
     AMIN     =   0.10
     WC   =   100.;   INIMIX=   1;  MIXPRE=   1;  MAXMIX= -45

 Intra band minimization:
   WEIMIN = 0.0010     energy-eigenvalue tresh-hold
   EBREAK =  0.32E-07  absolut break condition
   DEPER  =   0.30     relativ break condition  

   TIME   =   0.40     timestep for ELM

  volume/ion in A,a.u.               =      41.17       277.85
  Fermi-wavevector in a.u.,A,eV,Ry     =   0.786366  1.486017  8.413461  0.618372
  Thomas-Fermi vector in A             =   1.890890

 Write flags
   LWAVE        =      F    write WAVECAR
   LDOWNSAMPLE  =      F    k-point downsampling of WAVECAR
   LCHARG       =      F    write CHGCAR
   LVTOT        =      F    write LOCPOT, total local potential
   LVHAR        =      F    write LOCPOT, Hartree potential only
   LELF         =      F    write electronic localiz. function (ELF)
   LORBIT       =      0    0 simple, 1 ext, 2 COOP (PROOUT), +10 PAW based schemes


 Dipole corrections
   LMONO  =      F    monopole corrections only (constant potential shift)
   LDIPOL =      T    correct potential (dipole corrections)
   IDIPOL =      3    1-x, 2-y, 3-z, 4-all directions 
   EPSILON=  1.0000000 bulk dielectric constant

 Exchange correlation treatment:
   GGA     =    RP    GGA type
   LEXCH   =     9    internal setting for exchange type
   VOSKOWN=      0    Vosko Wilk Nusair interpolation
   LHFCALC =     F    Hartree Fock is set to
   LHFONE  =     F    Hartree Fock one center treatment
   AEXX    =    0.0000 exact exchange contribution

 Linear response parameters
   LEPSILON=     F    determine dielectric tensor
   LRPA    =     F    only Hartree local field effects (RPA)
   LNABLA  =     F    use nabla operator in PAW spheres
   LVEL    =     F    velocity operator in full k-point grid
   LINTERFAST=   F  fast interpolation
   KINTER  =     0    interpolate to denser k-point grid
   CSHIFT  =0.1000    complex shift for real part using Kramers Kronig
   OMEGAMAX=  -1.0    maximum frequency
   DEG_THRESHOLD= 0.2000000E-02 threshold for treating states as degnerate
   RTIME   =   -0.100 relaxation time in fs
  (WPLASMAI=    0.000 imaginary part of plasma frequency in eV, 0.658/RTIME)
   DFIELD  = 0.0000000 0.0000000 0.0000000 field for delta impulse in time

 Orbital magnetization related:
   ORBITALMAG=     F  switch on orbital magnetization
   LCHIMAG   =     F  perturbation theory with respect to B field
   DQ        =  0.001000  dq finite difference perturbation B field
   LLRAUG    =     F  two centre corrections for induced B field



--------------------------------------------------------------------------------------------------------


 quasi-Newton-method for relaxation of ions
   using selective dynamics as specified on POSCAR
 charge density and potential will be updated during run
 non-spin polarized calculation
 RMM-DIIS sequential band-by-band and
  variant of blocked Davidson during initial phase
 perform sub-space diagonalisation
    before iterative eigenvector-optimisation
 modified Broyden-mixing scheme, WC =      100.0
 initial mixing is a Kerker type mixing with AMIX =  0.4000 and BMIX =      1.0000
 Hartree-type preconditioning will be used
 using additional bands          144
 real space projection scheme for non local part
 use partial core corrections
 calculate Harris-corrections to forces   (improved forces if not selfconsistent)
 use gradient corrections 
 use of overlap-Matrix (Vanderbilt PP)
 Gauss-broadening in eV      SIGMA  =   0.20


--------------------------------------------------------------------------------------------------------


  energy-cutoff  :      500.00
  volume of cell :    11405.04
      direct lattice vectors                 reciprocal lattice vectors
    23.411294595  0.000000000  0.000000000     0.042714426  0.000000000  0.000000000
     0.000000000 18.121236951  0.000000000     0.000000000  0.055183871  0.000000000
     0.000000000  0.000000000 26.883366507     0.000000000  0.000000000  0.037197722

  length of vectors
    23.411294595 18.121236951 26.883366507     0.042714426  0.055183871  0.037197722



 k-points in units of 2pi/SCALE and weight: KPOINTS created by Atomic Simulation Env
   0.00000000  0.00000000  0.00000000       0.111
   0.01423814  0.00000000  0.00000000       0.222
   0.00000000  0.01839462  0.00000000       0.222
   0.01423814  0.01839462  0.00000000       0.222
  -0.01423814  0.01839462  0.00000000       0.222

 k-points in reciprocal lattice and weights: KPOINTS created by Atomic Simulation Env
   0.00000000  0.00000000  0.00000000       0.111
   0.33333333  0.00000000  0.00000000       0.222
   0.00000000  0.33333333  0.00000000       0.222
   0.33333333  0.33333333  0.00000000       0.222
  -0.33333333  0.33333333  0.00000000       0.222

 position of ions in fractional coordinates (direct lattice) 
   0.51564701  0.53036513  0.75198095
   0.53026664  0.35454645  0.73604366
   0.57288646  0.56801715  0.74433641
   0.53971814  0.27440064  0.74507329
   0.76709120  0.09958347  0.65318658
   0.92642768  0.27866896  0.35633493
   0.79333970  0.20727890  0.37345652
   0.97453911  0.94360860  0.32530279
   0.62573266  0.96347285  0.37523120
   0.82053840  0.99500666  0.36899263
   0.74999307  0.14117876  0.45803819
   0.91540349  0.24941441  0.51002628
   0.58349286  0.30426355  0.30592717
   0.89241797  0.33509589  0.61603091
   0.59456451  0.36345542  0.61155182
   0.59388134  0.87096527  0.57796926
   0.03362726  0.33754874  0.65293483
   0.93527051  0.41951423  0.45410146
   0.74613838  0.53031199  0.42248819
   0.80192413  0.38513322  0.63685823
   0.59110202  0.56868283  0.37803474
   0.71843379  0.64593279  0.38346059
   0.84115291  0.54242660  0.41959617
   0.00476455  0.60379815  0.35777830
   0.82835870  0.71235667  0.46794226
   0.88041716  0.59866530  0.71984201
   0.51999031  0.98556476  0.42170307
   0.22309457  0.98015484  0.39320502
   0.21637369  0.23785146  0.31923033
   0.15750105  0.32980623  0.27898292
   0.34154688  0.15558571  0.33077276
   0.22271586  0.04575893  0.32273843
   0.51142364  0.82657727  0.54706446
   0.37287861  0.23798150  0.64812956
   0.24316339  0.09414433  0.59876211
   0.31538097  0.48713646  0.44243467
   0.40895618  0.43873486  0.40569060
   0.39849950  0.79311361  0.38878680
   0.24420236  0.65543008  0.29432688
   0.31174138  0.41847571  0.36925764
   0.40547429  0.58427965  0.33881989
   0.13935762  0.48797365  0.35192946
   0.59326935  0.69798713  0.35239799
   0.46900683  0.86142747  0.44382838
   0.12380498  0.32578712  0.61463856
   0.07570828  0.66261348  0.64669020
   0.24636924  0.39337395  0.68216514
   0.24904608  0.81544739  0.67035028
   0.49940404  0.53001249  0.79030165
   0.55914582  0.39509966  0.75408697
   0.60238809  0.55769854  0.77554063
   0.59428383  0.55172246  0.70963148
   0.56614868  0.62834229  0.74200916
   0.55123749  0.26597288  0.78440409
   0.50237805  0.24146605  0.73432707
   0.57702734  0.25691397  0.72272222
   0.36894173  0.64835510  0.43900002
   0.34681565  0.50403387  0.42038813
   0.86080038  0.56644314  0.69671454
   0.34863663  0.96152101  0.53032564
   0.03320943  0.93228006  0.52852856
   0.63635548  0.07886855  0.48937667
   0.06864615  0.05226542  0.39511073
   0.45189954  0.12956232  0.42059728
   0.80588415  0.21365018  0.48316661
   0.97387718  0.18180693  0.59860311
   0.27476529  0.29917287  0.44851223
   0.55635417  0.77509129  0.44175101
   0.39110353  0.97498874  0.61968657
   0.17751724  0.34996845  0.40527312
   0.86661720  0.68435199  0.63746584
   0.86569601  0.96717693  0.46703846
   0.30104714  0.76093683  0.45792526
   0.42161095  0.26125222  0.37959630
   0.81118486  0.46507840  0.52021269
   0.98367089  0.07264279  0.52110368
   0.50444751  0.46976918  0.63251991
   0.03453641  0.91994776  0.42940526
   0.96303654  0.30319531  0.35125762
   0.06962669  0.33610577  0.37637178
   0.20829566  0.72864429  0.39536010
   0.03890126  0.41910192  0.49910875
   0.24009849  0.28667417  0.58799883
   0.39964262  0.19719273  0.64597551
   0.45402007  0.56709247  0.57694064
   0.91017420  0.74905696  0.55750302
   0.86912727  0.10804334  0.44227833
   0.57257679  0.66733185  0.37613173
   0.14242656  0.15912550  0.37597224
   0.35116287  0.76569122  0.60668608
   0.91099605  0.84504757  0.48317962
   0.06133801  0.53687171  0.44225348
   0.70833903  0.55516655  0.41995768
   0.07548726  0.81680680  0.48299416
   0.70046477  0.82755572  0.43263529
   0.73027276  0.04936565  0.54297220
   0.91944179  0.30194929  0.63228122
   0.73523910  0.85205714  0.61306576
   0.62512195  0.52739400  0.48637871
   0.55657330  0.62970304  0.46724942
   0.42579774  0.24916392  0.55613345
   0.97829009  0.72824363  0.47679564
   0.65406649  0.59411195  0.63306454
   0.39623166  0.74802569  0.51500444
   0.60269007  0.51766545  0.38567099
   0.72100055  0.63000799  0.55692215
   0.14957338  0.36584684  0.62331224
   0.06631594  0.54836886  0.54207070
   0.81875548  0.88421409  0.53644090
   0.82821553  0.35538514  0.45190334
   0.52758109  0.29786103  0.53158391
   0.73709043  0.49855039  0.59589460
   0.55743394  0.17243111  0.39490854
   0.80596408  0.25641257  0.38329286
   0.23744622  0.95325075  0.50791956
   0.69266552  0.77502215  0.54194363
   0.92348974  0.94998748  0.55290318
   0.52573722  0.31778112  0.39855594
   0.46729906  0.99345483  0.54622445
   0.83764136  0.09480943  0.53970849
   0.53790325  0.11641749  0.48623709
   0.35019344  0.18660873  0.43963639
   0.01176032  0.96241390  0.33524376
   0.44895258  0.59749782  0.67172683
   0.65496522  0.92539750  0.37922825
   0.07629334  0.68602626  0.43588102
   0.45469824  0.40614914  0.55304060
   0.71921944  0.70042085  0.37958300
   0.45342154  0.70847010  0.59792862
   0.75255106  0.70932458  0.47629548
   0.77911234  0.11971480  0.62148518
   0.99327462  0.30801347  0.44840298
   0.53792835  0.50827236  0.53611823
   0.81677759  0.49906173  0.42344221
   0.23627329  0.14635468  0.60566222
   0.20353331  0.83070132  0.47053363
   0.23981438  0.55913100  0.52285015
   0.06134480  0.62553595  0.62392474
   0.04607407  0.60234669  0.35417863
   0.80074386  0.97813952  0.60550341
   0.53799091  0.02769749  0.40450275
   0.60505659  0.31246561  0.60511138
   0.86154611  0.00408085  0.36920633
   0.09491131  0.14902284  0.46708233
   0.17148228  0.20473547  0.53106359
   0.64098865  0.70443872  0.45481558
   0.43678778  0.40976848  0.38641325
   0.57385132  0.05899727  0.57123538
   0.15143775  0.59340802  0.38895836
   0.26773979  0.60233753  0.39230630
   0.44025846  0.32219818  0.47032443
   0.23800967  0.15851113  0.42990119
   0.07321045  0.14940838  0.56243007
   0.84489488  0.54484520  0.59953434
   0.62117943  0.27993988  0.41090545
   0.60266699  0.89152667  0.46722346
   0.03138539  0.19528983  0.38899188
   0.60775062  0.19530857  0.54769419
   0.13279973  0.93835464  0.47948708
   0.08002831  0.28019579  0.51198808
   0.37211612  0.10751824  0.56961984
   0.06624987  0.69642028  0.53557376
   0.66648838  0.41538488  0.43001156
   0.79965579  0.72960214  0.56401438
   0.70383856  0.95720843  0.47018456
   0.60021718  0.63678062  0.55221437
   0.72284030  0.29368465  0.45166811
   0.97738678  0.31443353  0.54721410
   0.15833387  0.63030112  0.57070417
   0.63333384  0.32678308  0.50780070
   0.82098245  0.39682004  0.60578408
   0.95857820  0.02724304  0.41695300
   0.28195666  0.19524902  0.51863608
   0.24925755  0.44303289  0.46105570
   0.27392887  0.85076152  0.56842430
   0.20366815  0.68557317  0.48688872
   0.14712345  0.47606988  0.49254493
   0.22433350  0.42273125  0.55656814
   0.91141698  0.45274460  0.47371881
   0.86978818  0.70456011  0.46415352
   0.73812021  0.09283462  0.44522965
   0.22218344  0.92978119  0.40794682
   0.25656879  0.40392386  0.64798911
   0.63094010  0.88300297  0.59349240
   0.41022327  0.78906239  0.42343739
   0.91777135  0.19603829  0.50824515
   0.13254706  0.44353611  0.33227266
   0.15514768  0.30352326  0.31056042
   0.37300515  0.13090704  0.34795342
   0.03525662  0.29280188  0.63310941
   0.57268926  0.25686819  0.32009968
   0.24574997  0.77171156  0.64974158
   0.20737430  0.64840505  0.31036906
   0.27537441  0.39219130  0.36737583
   0.36535081  0.59758663  0.34222079
   0.22638085  0.05618082  0.35811888
   0.24120334  0.19607823  0.32934297
   0.50127293  0.89230162  0.45484168
   0.55028528  0.82836727  0.53442585
   0.54435522  0.64550293  0.63304223
   0.47848274  0.12403302  0.59670596
   0.26229736  0.69550597  0.56852889
   0.44162418  0.85003607  0.58055490
   0.76549608  0.61669600  0.64959991
   0.84520006  0.83173512  0.62276942
   0.63981540  0.73947257  0.62194005
   0.00791188  0.03324835  0.60291117
   0.28385016  0.00363603  0.59349203
   0.50254028  0.97330906  0.62850033
   0.49120208  0.37824858  0.70921722
   0.40465948  0.47468867  0.72738284
   0.08322528  0.60642030  0.40641308
   0.40945098  0.76740021  0.57404602
   0.84176382  0.44145312  0.46783897
   0.01708949  0.99048204  0.39361135
   0.01470021  0.28419027  0.39108141
   0.00952575  0.11479590  0.57238044
   0.60893809  0.65771440  0.61078916
   0.21401286  0.47621489  0.50969986
   0.91506213  0.75556094  0.49625454
   0.52057854  0.11045563  0.42598659
   0.41883129  0.17174539  0.58974496
   0.08345253  0.13917208  0.40698087
   0.70189793  0.04484625  0.48732303
   0.66505935  0.89803746  0.43747644
   0.65009874  0.50402706  0.43015089
   0.19846065  0.91248223  0.46399069
   0.21623064  0.36788840  0.60428732
   0.67354209  0.81273147  0.59504982
   0.21677696  0.64213487  0.53869910
   0.36878912  0.73512773  0.45920930
   0.79737816  0.88786598  0.59550630
   0.87962699  0.91213983  0.51194042
   0.57728647  0.57547872  0.51273427
   0.58982567  0.11540924  0.52519249
   0.85812234  0.15211323  0.49517595
   0.83543638  0.60397874  0.64587596
   0.13373852  0.36031890  0.35687228
   0.79065529  0.27993925  0.44187265
   0.39917610  0.17749484  0.39600320
   0.85628833  0.75004783  0.59643306
   0.28327135  0.93591484  0.54956367
   0.02307473  0.33044751  0.50224551
   0.57455938  0.69549008  0.43556436
   0.23024095  0.75260050  0.45196954
   0.59354259  0.28367487  0.54785551
   0.97575077  0.27255350  0.60262136
   0.88890636  0.02540900  0.42420019
   0.10482371  0.19540562  0.51781820
   0.04814566  0.73303709  0.48263019
   0.23207682  0.20671632  0.56114892
   0.56140781  0.25778527  0.38122611
   0.47528306  0.62887455  0.61997875
   0.28207818  0.77127567  0.59767197
   0.20850083  0.64339984  0.37179454
   0.74062413  0.71015766  0.53591564
   0.98633583  0.99047379  0.55026818
   0.70310456  0.73681815  0.43426040
   0.78807296  0.05901992  0.57676228
   0.45631390  0.32845159  0.40928789
   0.44858088  0.93823697  0.59410847
   0.50803480  0.04263693  0.58621968
   0.24424715  0.37040632  0.42094710
   0.65852534  0.33000211  0.45034791
   0.46066304  0.32003369  0.52906783
   0.33729937  0.58994254  0.39908301
   0.80357994  0.47661961  0.57983957
   0.06920979  0.89885916  0.48050551
   0.21190758  0.14445432  0.37359659
   0.07823286  0.49398500  0.49468762
   0.55757019  0.85234010  0.47473025
   0.71841295  0.58434496  0.60961523
   0.28664212  0.21010174  0.45911077
   0.08818850  0.62542320  0.56775016
   0.35277835  0.02172967  0.57846620
   0.48599612  0.48424600  0.57421272
   0.46758037  0.49822870  0.69834216

 position of ions in cartesian coordinates  (Angst):
  12.07196396  9.61087227 20.21577950
  12.41422845  6.42482027 19.78733142
  13.41201370 10.29317336 20.01026854
  12.63550046  4.97247909 20.03007828
  17.95859807  1.80457565 17.55985416
  21.68887124  5.04982631  9.57948250
  18.57310935  3.75615001 10.03976840
  22.81522226 17.09935504  8.74523415
  14.64921175 17.45931981 10.08747787
  19.20986618 18.03075152  9.91976410
  17.55830880  2.55833369 12.31360861
  21.43078081  4.51969755 13.71122344
  13.66032332  5.51363182  8.22435231
  20.89265995  6.07235200 16.56098482
  13.91952487  6.58626171 16.44057170
  13.90353111 15.78296799 15.53775947
   0.78725764  6.11680073 17.55308636
  21.89589338  7.60211669 12.20777585
  17.46806539  9.60990927 11.35790489
  18.77408200  6.97909035 17.12089333
  13.83846347 10.30523625 10.16284657
  16.81946503 11.70510107 10.30871170
  19.69247867  9.82944088 11.28015755
   0.11154425 10.94156933  9.61828518
  19.39294954 12.90878407 12.57986315
  20.61170557 10.84855577 19.35177670
  12.17364643 17.85965258 11.33679820
   5.22293275 17.76161802 10.57067472
   5.06558822  4.31016263  8.58198589
   3.68730349  5.97649684  7.50000000
   7.99605455  2.81940544  8.89228530
   5.21406665  0.82920834  8.67629559
  11.97308941 14.97860257 14.70693446
   8.72957091  4.31251910 17.42390454
   5.69276965  1.70601176 16.09674124
   7.38347683  8.82751530 11.89413327
   9.57419369  7.95041833 10.90632902
   9.32938927 14.37219961 10.45189795
   5.71709332 11.87720376  7.91249741
   7.29826932  7.58329756  9.92688859
   9.49267817 10.58787005  9.10861924
   3.26254231  8.84268608  9.46104865
  13.88920341 12.64839014  9.47364424
  10.98005707 15.61013129 11.93160111
   2.89843477  5.90366561 16.52355370
   1.77242890 12.00737587 17.38520965
   5.76782286  7.12842253 18.33889550
   5.83049106 14.77691529 18.02127237
  11.69169521  9.60448186 21.24596898
  13.09032750  7.15969460 20.27239637
  14.10268505 10.10618742 20.84914301
  13.91295385  9.99789337 19.07728314
  13.25427360 11.38633961 19.94770418
  12.90518334  4.81975756 21.08742262
  11.76132054  4.37566348 19.74118372
  13.50895713  4.65559893 19.42920622
   8.63740362 11.74899635 11.80179838
   8.11940335  9.13371715 11.30144811
  20.15245138 10.26465039 18.73003235
   8.16203480 17.42395004 14.25693852
   0.77747580 16.89406792 14.20862690
  14.89790566  1.42919560 13.15609244
   1.60709516  0.94711409 10.62190669
  10.57955332  2.34782959 11.30707087
  18.86679123  3.87160553 12.98914499
  22.79972557  3.29456649 16.09246682
   6.43261122  5.42138249 12.05751853
  13.02497128 14.04561295 11.87575437
   9.15623987 17.66800192 16.65926119
   4.15590840  6.34186120 10.89510594
  20.28863064 12.40130463 17.13722771
  20.26706433 17.52644236 12.55556607
   7.04790320 13.78911669 12.31057251
   9.87045805  4.73421333 10.20482654
  18.99088783  8.42779593 13.98506846
  23.02900902  1.31637722 14.00902129
  11.80976924  8.51279862 17.00426468
   0.80854198 16.67059137 11.54385891
  22.54593219  5.49427402  9.44298747
   1.63005096  6.09065222 10.11814055
   4.87647100 13.20393591 10.62861051
   0.91072893  7.59464512 13.41772355
   5.62101659  5.19489051 15.80738798
   9.35615101  3.57337616 17.36599647
  10.62919759 10.27641699 15.51010657
  21.30835626 13.57383861 14.98755808
  20.34739459  1.95787901 11.88993046
  13.40476402 12.09287863 10.11168720
   3.33439013  2.88355087 10.10739962
   8.22117732 13.87527196 16.30976430
  21.32759690 15.31330728 12.98949491
   1.43600223  9.72877939 11.88926245
  16.58313365 10.06030463 11.28987623
   1.76725442 14.80154966 12.98450890
  16.39878711 14.99633320 11.63069310
  17.09663066  0.89456655 14.59692067
  21.52532261  5.47169461 16.99784785
  17.21289909 15.44032925 16.48127147
  14.63491423  9.55703168 13.07549710
  13.03010146 11.41099800 12.56123752
   9.96847636  4.51515837 14.95073947
  22.90303759 13.19667544 12.81787194
  15.31254334 10.76604333 17.01890613
   9.27629613 13.55515082 13.84505302
  14.10975474  9.38073831 10.36813464
  16.87955631 11.41652411 14.97194216
   3.50170651  6.62959736 16.75673150
   1.55254194  9.93712199 14.57268538
  19.16812564 16.02305306 14.42133745
  19.38959778  6.44001838 12.14868300
  12.35135628  5.39761032 14.29076516
  17.25624128  9.03434976 16.01965290
  13.05025010  3.12466491 10.61647095
  18.86866258  4.64651295 10.30420244
   5.55892333 17.27408272 13.65458756
  16.21619652 14.04436010 14.56926913
  21.62009043 17.21494826 14.86389893
  12.30818899  5.75858697 10.71452528
  10.94007607 18.00263041 14.68435203
  19.61026858  1.71806417 14.50918102
  12.59301152  2.10962891 13.07168996
   8.19848185  3.38158106 11.81890631
   0.27532438 17.44013033  9.01248080
  10.51056104 10.82739950 18.05827846
  15.33358375 16.76934745 10.19493214
   1.78612593 12.43164437 11.71794928
  10.64507435  7.35992484 14.86759326
  16.83785811 12.69249221 10.20446890
  10.61518521 12.83835454 16.07433419
  17.61819454 12.85383871 12.80442605
  18.24002843  2.16938019 16.70761385
  23.25384464  5.58158514 12.05458163
  12.59359913  9.21052381 14.41266276
  19.12182067  9.04361594 11.38355200
   5.53146360  2.65212781 16.28223941
   4.76497818 15.05333538 12.64952801
   5.61436499 10.13214540 14.05597232
   1.43616111 11.33548520 16.77319751
   1.07865368 10.91526714  9.52151395
  18.74645048 17.72509809 16.27797009
  12.59506368  0.50191281 10.87439573
  14.16515817  5.66226343 16.26743098
  20.16990973  0.07395004  9.92550906
   2.22199659  2.70047811 12.55674536
   4.01462228  3.71005991 14.27677720
  15.00637423 12.76530097 12.22697399
  10.22576747  7.42551174 10.38808912
  13.43460221  1.06910346 15.35673018
   3.54535369 10.75328740 10.45651017
   6.26813510 10.91510113 10.54651395
  10.30702051  5.83862961 12.64390410
   5.57211440  2.87241773 11.55719116
   1.71395134  2.70746465 15.12001379
  19.78008289  9.87326896 16.11750127
  14.54261460  5.07285684 11.04652184
  14.10921452 16.15556596 12.56053950
   0.73477264  3.53889327 10.45741115
  14.22822877  3.53923295 14.72386369
   3.10901352 17.00414686 12.89022683
   1.87356625  5.07749436 13.76396330
   8.71172021  1.94836345 15.31329885
   1.55099516 12.61999688 14.39802565
  15.60335582  7.52728779 11.56015827
  18.72097734 13.22129318 15.16260536
  16.47777184 17.34580083 12.64014391
  14.05186124 11.53925248 14.84538140
  16.92262721  5.32192921 12.14235921
  22.88188972  5.69792444 14.71095728
   3.70680087 11.42183598 15.34244925
  14.82716522  5.92171361 13.65139239
  19.22026198  7.19086989 16.28551533
  22.44155659  0.49367766 11.20910044
   6.60097049  3.53815375 13.94268386
   5.83544193  8.02830396 12.39472924
   6.41302954 15.41685101 15.28115866
   4.76813504 12.42343385 13.08920785
   3.44435051  8.62697504 13.24126574
   5.25193774  7.66041317 14.96242530
  21.33745138  8.20429214 12.73515651
  20.36286723 12.76750071 12.47800922
  17.28034963  1.68227812 11.96927179
   5.20160189 16.84878525 10.96698378
   6.00660745  7.31960001 17.42012878
  14.77112465 16.00110612 15.95507381
   9.60385771 14.29878658 11.38342242
  21.48621551  3.55245637 13.66334053
   3.10309823  8.03742302  8.93260776
   3.63220806  5.50021683  8.34890949
   8.73253334  2.37219755  9.35415932
   0.82540319  5.30593221 17.02011218
  13.40739700  4.65476936  8.60535697
   5.75332498 13.98436796 17.46724106
   4.85490080 11.74990155  8.34376522
   6.44687148  7.10699146  9.87629901
   8.55333550 10.82900896  9.20004704
   5.29986878  1.01806603  9.62744117
   5.64688233  3.55318002  8.85384768
  11.73544815 16.16960912 12.22767567
  12.88289090 15.01103950 14.36716588
  12.74406032 11.69731159 17.01830618
  11.20190045  2.24763178 16.04146501
   6.14072075 12.60342852 15.28397062
  10.33899370 15.40370500 15.60727010
  17.92125434 11.17529435 17.46343251
  19.78722749 15.07206917 16.74213857
  14.97890672 13.40015759 16.71984220
   0.18522747  0.60250120 16.20828206
   6.64529980  0.06588935 15.95506387
  11.76511844 17.63756415 16.89620475
  11.49967662  6.85433219 19.06614639
   9.47360224  8.60194582 19.55449936
   1.94841153 10.98908596 10.92575188
   9.58577755 13.90624100 15.43228956
  19.70678075  7.99967650 12.57708649
   0.40008717 17.94875972 10.58159830
   0.34415087  5.14987929 10.51358498
   0.22301015  2.08024363 15.38751319
  14.25602893 11.91859857 16.42006881
   5.01031808  8.62960279 13.70244817
  21.42278905 13.69169878 13.34099278
  12.18741762  2.00159257 11.45195358
   9.80538279  3.11223898 15.85432992
   1.95373172  2.52197018 10.94101594
  16.43233932  0.81266960 13.10088356
  15.56990048 16.27354967 11.76083937
  15.21965321  9.13359373 11.56390395
   4.64622069 16.53530673 12.47363180
   5.06223918  6.66659290 16.24527763
  15.76849236 14.72769948 15.99694227
   5.07502918 11.63627822 14.48204524
   8.63383069 13.32142384 12.34509184
  18.66765492 16.08922979 16.00921402
  20.59320652 16.52910195 13.76268187
  13.51502354 10.42838624 13.78402330
  13.80858263  2.09135819 14.11894228
  20.08975493  2.75647993 13.31199648
  19.55864714 10.94484184 17.36332014
   3.13099191  6.52942423  9.59392828
  18.51026388  5.07284540 11.87902451
   9.34522920  3.21642612 10.64589911
  20.04681828 13.59179452 16.03412859
   6.63174894 16.95993455 14.77412163
   0.54020936  5.98811771 13.50205012
  13.45117902 12.60314055 11.70943634
   5.39023881 13.63805193 12.15046292
  13.89560032  5.14053959 14.72820059
  22.84358878  4.93900650 16.20049087
  20.81044864  0.46044249 11.40392910
   2.45405878  3.54099160 13.92069655
   1.12715225 13.28353886 12.97472440
   5.43321875  3.74595543 15.08557200
  13.14328356  4.67138795 10.24864117
  11.12699171 11.39598479 16.66711585
   6.60381538 13.97646920 16.06743472
   4.88127424 11.65920104  9.99508876
  17.33896971 12.86893532 14.40721666
  23.09139874 17.94861029 14.79306123
  16.46058793 13.35205634 11.67438144
  18.44980818  1.06951402 15.50531182
  10.68289909  5.95194918 11.00303640
  10.50185902 17.00201449 15.97163581
  11.89375237  0.77263391 15.75955858
   5.71814202  6.71222076 11.31647527
  15.41693082  5.98004644 12.10686792
  10.78471804  5.79940641 14.22312445
   7.89661487 10.69048859 10.72869482
  18.81284667  8.63693686 15.58803955
   1.62029077 16.28843975 12.91760565
   4.96103076  2.61769098 10.04353415
   1.83153245  8.95161915 13.29886860
  13.05343995 15.44545689 12.76234739
  16.81897710 10.58905346 16.38850969
   6.71066321  3.80730339 12.34244318
   2.06460687 11.33344194 15.26303561
   8.25899785  0.39376848 15.55111894
  11.37779839  8.77513654 15.43677096
  10.94666183  9.02852042 18.77378833



--------------------------------------------------------------------------------------------------------


 k-point  1 :   0.0000 0.0000 0.0000  plane waves:  289505
 k-point  2 :   0.3333 0.0000 0.0000  plane waves:  289422
 k-point  3 :   0.0000 0.3333 0.0000  plane waves:  289550
 k-point  4 :   0.3333 0.3333 0.0000  plane waves:  289551
 k-point  5 :  -0.3333 0.3333 0.0000  plane waves:  289551

 maximum and minimum number of plane-waves per node :     72451    72309

 maximum number of plane-waves:    289551
 maximum index in each direction: 
   IXMAX=   43   IYMAX=   33   IZMAX=   49
   IXMIN=  -43   IYMIN=  -33   IZMIN=  -49


 real space projection operators:
  total allocation   :      13829.48 KBytes
  max/ min on nodes  :       3464.30       3452.32


 parallel 3D FFT for wavefunctions:
    minimum data exchange during FFTs selected (reduces bandwidth)
 parallel 3D FFT for charge:
    minimum data exchange during FFTs selected (reduces bandwidth)


 total amount of memory used by VASP MPI-rank0   703386. kBytes
=======================================================================

   base      :      30000. kBytes
   nonlr-proj:      17035. kBytes
   fftplans  :      30982. kBytes
   grid      :      57864. kBytes
   one-center:       1088. kBytes
   wavefun   :     566417. kBytes

     INWAV:  cpu time    0.0001: real time    0.0001
 Broyden mixing: mesh for mixing (old mesh)
   NGX = 85   NGY = 67   NGZ = 99
  (NGX  =256   NGY  =200   NGZ  =300)
  gives a total of 563805 points

 initial charge density was supplied:
 charge density of overlapping atoms calculated
 number of electron    1264.0000000 magnetization 
 keeping initial charge density in first step


--------------------------------------------------------------------------------------------------------


 Maximum index for non-local projection operator          640
 Maximum index for augmentation-charges          377 (set IRDMAX)


--------------------------------------------------------------------------------------------------------


 First call to EWALD:  gamma=   0.079
 Maximum number of real-space cells 3x 3x 2
 Maximum number of reciprocal cells 3x 2x 3

    FEWALD:  cpu time    0.0289: real time    0.0290


--------------------------------------- Iteration      1(   1)  ---------------------------------------


    POTLOK:  cpu time    0.2763: real time    0.3787
    SETDIJ:  cpu time    0.5726: real time    0.5742
     EDDAV:  cpu time   82.4419: real time   82.7344
       DOS:  cpu time    0.0021: real time    0.0022
    --------------------------------------------
      LOOP:  cpu time   83.2929: real time   83.6895

 eigenvalue-minimisations  :  8720
 total energy-change (2. order) : 0.1299972E+05  (-0.5028130E+05)
 number of electron    1264.0000000 magnetization 
 augmentation part     1264.0000000 magnetization 

 DIPCOR: dipole corrections for dipol
 direction  3 min pos    77,
 dipolmoment           0.000000      0.000000      6.475731 electrons x Angstroem
 Tr[quadrupol]    -96259.499346

 energy correction for charged system         0.000000 eV
 dipol+quadrupol energy correction           -0.340953 eV
 added-field ion interaction        889.238030 eV  (added to PSCEN)


 Free energy of the ion-electron system (eV)
  ---------------------------------------------------
  alpha Z        PSCENC =      1383.96452800
  Ewald energy   TEWEN  =    310361.07892439
  -Hartree energ DENC   =   -372971.89173699
  -exchange      EXHF   =         0.00000000
  -V(xc)+E(xc)   XCENC  =      3805.08676096
  PAW double counting   =     60302.38778424   -59321.72876092
  entropy T*S    EENTRO =        -1.69813219
  eigenvalues    EBANDS =     -5697.01978346
  atomic energy  EATOM  =     75139.53829012
  Solvation  Ediel_sol  =         0.00000000
  ---------------------------------------------------
  free energy    TOTEN  =     12999.71787415 eV

  energy without entropy =    13001.41600634  energy(sigma->0) =    13000.56694024


--------------------------------------------------------------------------------------------------------




--------------------------------------- Iteration      1(   2)  ---------------------------------------


     EDDAV:  cpu time   97.7712: real time   98.1016
       DOS:  cpu time    0.0013: real time    0.0013
    --------------------------------------------
      LOOP:  cpu time   97.7725: real time   98.1029

 eigenvalue-minimisations  : 10744
 total energy-change (2. order) :-0.1241316E+05  (-0.1201782E+05)
 number of electron    1264.0000000 magnetization 
 augmentation part     1264.0000000 magnetization 

 DIPCOR: dipole corrections for dipol
 direction  3 min pos    77,
 dipolmoment           0.000000      0.000000      6.475731 electrons x Angstroem
 Tr[quadrupol]    -96259.499346

 energy correction for charged system         0.000000 eV
 dipol+quadrupol energy correction           -0.340953 eV
 added-field ion interaction        889.238030 eV  (added to PSCEN)


 Free energy of the ion-electron system (eV)
  ---------------------------------------------------
  alpha Z        PSCENC =      1383.96452800
  Ewald energy   TEWEN  =    310361.07892439
  -Hartree energ DENC   =   -372971.89173699
  -exchange      EXHF   =         0.00000000
  -V(xc)+E(xc)   XCENC  =      3805.08676096
  PAW double counting   =     60302.38778424   -59321.72876092
  entropy T*S    EENTRO =        -0.00000000
  eigenvalues    EBANDS =    -18111.88102268
  atomic energy  EATOM  =     75139.53829012
  Solvation  Ediel_sol  =         0.00000000
  ---------------------------------------------------
  free energy    TOTEN  =       586.55476712 eV

  energy without entropy =      586.55476712  energy(sigma->0) =      586.55476712


--------------------------------------------------------------------------------------------------------




--------------------------------------- Iteration      1(   3)  ---------------------------------------


     EDDAV:  cpu time   85.2205: real time   85.5172
       DOS:  cpu time    0.0013: real time    0.0013
    --------------------------------------------
      LOOP:  cpu time   85.2218: real time   85.5186

 eigenvalue-minimisations  :  9064
 total energy-change (2. order) :-0.2609763E+04  (-0.2598636E+04)
 number of electron    1264.0000000 magnetization 
 augmentation part     1264.0000000 magnetization 

 DIPCOR: dipole corrections for dipol
 direction  3 min pos    77,
 dipolmoment           0.000000      0.000000      6.475731 electrons x Angstroem
 Tr[quadrupol]    -96259.499346

 energy correction for charged system         0.000000 eV
 dipol+quadrupol energy correction           -0.340953 eV
 added-field ion interaction        889.238030 eV  (added to PSCEN)


 Free energy of the ion-electron system (eV)
  ---------------------------------------------------
  alpha Z        PSCENC =      1383.96452800
  Ewald energy   TEWEN  =    310361.07892439
  -Hartree energ DENC   =   -372971.89173699
  -exchange      EXHF   =         0.00000000
  -V(xc)+E(xc)   XCENC  =      3805.08676096
  PAW double counting   =     60302.38778424   -59321.72876092
  entropy T*S    EENTRO =        -0.00000000
  eigenvalues    EBANDS =    -20721.64371906
  atomic energy  EATOM  =     75139.53829012
[...]
      7.04790     13.78912     12.31057        -0.415928     -0.091314     -0.154318
      9.87046      4.73421     10.20483         0.407185      0.006042      0.502005
     18.99089      8.42780     13.98507        -0.002727      0.000529      0.000714
     23.02901      1.31638     14.00902         0.000208      0.005406      0.000770
     11.80977      8.51280     17.00426        -0.017299     -0.015772     -0.001152
      0.80854     16.67059     11.54386        -0.115112      0.456528     -0.310222
     22.54593      5.49427      9.44299         0.180165     -0.185717      0.402304
      1.63005      6.09065     10.11814         0.287682     -0.135646     -0.035795
      4.87647     13.20394     10.62861         0.404773     -0.176983      0.392464
      0.91073      7.59465     13.41772         0.443202      0.019014      0.171316
      5.62102      5.19489     15.80739         0.002439     -0.010269      0.007836
      9.35615      3.57338     17.36600         0.004247     -0.013813      0.003870
     10.62920     10.27642     15.51011         0.013007      0.010220     -0.008567
     21.30836     13.57384     14.98756        -0.009953      0.001681     -0.000766
     20.34739      1.95788     11.88993        -0.080318     -0.036085      0.429455
     13.40476     12.09288     10.11169        -0.256672      0.193522      0.059768
      3.33439      2.88355     10.10740        -0.033119     -0.058028      0.182351
      8.22118     13.87527     16.30976        -0.001866     -0.010407      0.000474
     21.32760     15.31331     12.98949         0.326879     -1.486408      0.186512
      1.43600      9.72878     11.88926         0.532819      0.269302      0.056633
     16.58313     10.06030     11.28988        -0.080615     -0.559160     -0.060828
      1.76725     14.80155     12.98451        -0.018983     -6.374800      0.312389
     16.39879     14.99633     11.63069         1.826001     -3.792372     -0.210978
     17.09663      0.89457     14.59692         0.009019     -0.004166     -0.003339
     21.52532      5.47169     16.99785         0.011237     -0.006904     -0.010837
     17.21290     15.44033     16.48127        -0.004324      0.018281     -0.007870
     14.63491      9.55703     13.07550         1.895349     -1.182704     -1.328316
     13.03010     11.41100     12.56124        -3.516172     -2.977007      1.936126
      9.96848      4.51516     14.95074        -0.003828      0.000555      0.008180
     22.90304     13.19668     12.81787         0.398367      0.315814      0.209749
     15.31254     10.76604     17.01891         0.006869      0.004929      0.017547
      9.27630     13.55515     13.84505        -0.001918      0.002633      0.006908
     14.10975      9.38074     10.36813         0.284955     -0.136413      0.334301
     16.87956     11.41652     14.97194        -0.012293     -0.002318     -0.001446
      3.50171      6.62960     16.75673         0.003378     -0.009317      0.013479
      1.55254      9.93712     14.57269        -0.003437      0.011445     -0.006450
     19.16813     16.02305     14.42134        -0.002427     -0.002312      0.024554
     19.38960      6.44002     12.14868        -0.141113      0.237163      0.184697
     12.35136      5.39761     14.29077         0.001597      0.008221      0.008638
     17.25624      9.03435     16.01965        -0.007616     -0.003409     -0.000530
     13.05025      3.12466     10.61647        -1.365542     -1.818283      0.514498
     18.86866      4.64651     10.30420        -0.043486     -0.027959      0.746345
      5.55892     17.27408     13.65459        -0.840365      0.214640     -0.992314
     16.21620     14.04436     14.56927        -0.001322      0.008455      0.007855
     21.62009     17.21495     14.86390         0.006434     -0.002563      0.000267
     12.30819      5.75859     10.71453        -7.842577      6.635125      3.160723
     10.94008     18.00263     14.68435        -0.007273     -0.006294      0.003230
     19.61027      1.71806     14.50918        -0.002349     -0.002624      0.005865
     12.59301      2.10963     13.07169        -2.068374      0.620046     -1.058909
      8.19848      3.38158     11.81891        -0.114312      0.153844      0.028236
      0.27532     17.44013      9.01248        -0.253677      0.114644      0.308892
     10.51056     10.82740     18.05828        -0.011423      0.010338     -0.006755
     15.33358     16.76935     10.19493        -0.559019      0.136702      0.609137
      1.78613     12.43164     11.71795         0.021538     -0.133001      0.076473
     10.64507      7.35992     14.86759        -0.012357     -0.002778     -0.001251
     16.83786     12.69249     10.20447        -0.036561      0.280538      0.466538
     10.61519     12.83835     16.07433         0.019147     -0.006512     -0.031145
     17.61819     12.85384     12.80443        -0.362250      0.245354     -1.069737
     18.24003      2.16938     16.70761        -0.021643     -0.007633     -0.007404
     23.25384      5.58159     12.05458         0.259676      0.001727     -0.030655
     12.59360      9.21052     14.41266         0.015134     -0.007250     -0.007584
     19.12182      9.04362     11.38355         0.344193     -0.398077      0.442937
      5.53146      2.65213     16.28224        -0.001111     -0.000364      0.003083
      4.76498     15.05334     12.64953         0.576116     -6.656945      0.315118
      5.61436     10.13215     14.05597         0.006855     -0.001101     -0.001431
      1.43616     11.33549     16.77320        -0.000028     -0.008929     -0.001185
      1.07865     10.91527      9.52151         0.177820      0.219057      0.420278
     18.74645     17.72510     16.27797        -0.000071      0.011288      0.006766
     12.59506      0.50191     10.87440        -0.216002      0.393395      0.158887
     14.16516      5.66226     16.26743        -0.003704     -0.001606     -0.002657
     20.16991      0.07395      9.92551        -0.071546      0.007251      0.284360
      2.22200      2.70048     12.55675        -0.014495     -0.018361     -0.778029
      4.01462      3.71006     14.27678        -0.000611      0.002493      0.001261
     15.00637     12.76530     12.22697         2.698514      0.244413     -0.675387
     10.22577      7.42551     10.38809         0.261304     -0.706432      0.490485
     13.43460      1.06910     15.35673        -0.003208      0.004492     -0.001019
      3.54535     10.75329     10.45651        -0.012849      0.694821      0.067445
      6.26814     10.91510     10.54651         0.130087      0.310673      0.015205
     10.30702      5.83863     12.64390         0.382670      0.140882     -0.635537
      5.57211      2.87242     11.55719         0.316340      0.276764     -0.379188
      1.71395      2.70746     15.12001        -0.000571      0.023393      0.006487
     19.78008      9.87327     16.11750        -0.006914     -0.002834     -0.001727
     14.54261      5.07286     11.04652         1.395047      0.644248      0.846437
     14.10921     16.15557     12.56054        23.583418     14.668326     -4.561327
      0.73477      3.53889     10.45741         0.411704      0.158504      0.262276
     14.22823      3.53923     14.72386        -0.002808      0.001185      0.000476
      3.10901     17.00415     12.89023        -0.016798     -0.140668     -0.330126
      1.87357      5.07749     13.76396         0.012112      0.008635     -0.020292
      8.71172      1.94836     15.31330        -0.011324     -0.012115      0.003531
      1.55100     12.62000     14.39803         0.002318      0.002213      0.003551
     15.60336      7.52729     11.56016        -0.314411      0.145674      0.448891
     18.72098     13.22129     15.16261        -0.009584      0.006225     -0.001402
     16.47777     17.34580     12.64014        -0.762501      0.399126     -0.194153
     14.05186     11.53925     14.84538        -0.006778     -0.003238      0.009425
     16.92263      5.32193     12.14236         0.241695      0.044985     -0.019327
     22.88189      5.69792     14.71096         0.011447      0.000736      0.003433
      3.70680     11.42184     15.34245         0.002608      0.011605     -0.000738
     14.82717      5.92171     13.65139         0.384963      0.211751     -0.659106
     19.22026      7.19087     16.28552        -0.007582     -0.009465     -0.008132
     22.44156      0.49368     11.20910        -0.301913     -0.371271     -0.337288
      6.60097      3.53815     13.94268         0.000683     -0.007968     -0.003918
      5.83544      8.02830     12.39473        -0.037322     -0.697811     -0.635579
      6.41303     15.41685     15.28116         0.000240      0.007900      0.003861
      4.76814     12.42343     13.08921         0.233964      0.557167     -0.401636
      3.44435      8.62698     13.24127        -0.344576      0.101110      0.166305
      5.25194      7.66041     14.96243        -0.006622     -0.007587      0.000378
     21.33745      8.20429     12.73516        -0.255166     -0.141522     -0.140974
     20.36287     12.76750     12.47801         0.323973      0.279694      0.437964
     17.28035      1.68228     11.96927        -0.176435     -0.264090      0.470293
      5.20160     16.84879     10.96698        -0.333347      0.379889      0.343166
      6.00661      7.31960     17.42013         0.006594      0.001285     -0.020512
     14.77112     16.00111     15.95507        -0.011341      0.004267     -0.006585
      9.60386     14.29879     11.38342        -0.509460     -0.384840      0.217762
     21.48622      3.55246     13.66334        -0.765200     -0.040719     -0.116904
      3.10310      8.03742      8.93261         0.093752     -0.243777      0.304150
      3.63221      5.50022      8.34891        -0.161962      0.550148      0.346861
      8.73253      2.37220      9.35416         0.188891      0.600963      0.326411
      0.82540      5.30593     17.02011        -0.009289     -0.020109      0.003959
     13.40740      4.65477      8.60536        -0.195082      0.161708      0.198886
      5.75332     13.98437     17.46724         0.013816     -0.012548      0.008707
      4.85490     11.74990      8.34377         0.078175     -0.129090      0.491437
      6.44687      7.10699      9.87630         0.019865      0.041363      0.686625
      8.55334     10.82901      9.20005        -0.080996     -0.027930      0.717205
      5.29987      1.01807      9.62744        -0.072240      0.795131      0.103205
      5.64688      3.55318      8.85385        -0.375418     -0.055141      0.438682
     11.73545     16.16961     12.22768        -2.216083      1.057458     -0.706298
     12.88289     15.01104     14.36717        -0.002451      0.005964      0.000202
     12.74406     11.69731     17.01831         0.007916      0.000716      0.014167
     11.20190      2.24763     16.04147        -0.006953     -0.015680      0.001206
      6.14072     12.60343     15.28397         0.002389     -0.003048     -0.002204
     10.33899     15.40371     15.60727        -0.001886     -0.003721      0.007273
     17.92125     11.17529     17.46343        -0.003851     -0.003163     -0.007112
     19.78723     15.07207     16.74214        -0.019042     -0.006358      0.005491
     14.97891     13.40016     16.71984         0.009015      0.005009     -0.000817
      0.18523      0.60250     16.20828         0.008083      0.007067     -0.002371
      6.64530      0.06589     15.95506         0.000470     -0.005847      0.001652
     11.76512     17.63756     16.89620         0.002054     -0.012916     -0.002493
     11.49968      6.85433     19.06615        -0.025085      0.005233      0.003718
      9.47360      8.60195     19.55450        -0.004815      0.013736      0.023274
      1.94841     10.98909     10.92575        -0.047468     -0.126870      0.077775
      9.58578     13.90624     15.43229         0.004584     -0.007180     -0.007369
     19.70678      7.99968     12.57709         0.133464     -0.164725     -0.282383
      0.40009     17.94876     10.58160         0.106832     -0.146348      0.343703
      0.34415      5.14988     10.51358         0.050056      0.036555      0.091843
      0.22301      2.08024     15.38751        -0.002369      0.001044     -0.000305
     14.25603     11.91860     16.42007         0.001324      0.001367      0.010643
      5.01032      8.62960     13.70245        -0.001859     -0.003816     -0.002612
     21.42279     13.69170     13.34099         0.256978      0.214126     -0.643370
     12.18742      2.00159     11.45195         0.137802     -0.076649      0.475076
      9.80538      3.11224     15.85433        -0.006932      0.001540      0.005357
      1.95373      2.52197     10.94102         0.082998     -0.116066      0.085388
     16.43234      0.81267     13.10088         0.115225     -0.095876     -0.311304
     15.56990     16.27355     11.76084        -0.507669      4.508340     -0.191596
     15.21965      9.13359     11.56390         0.007369      0.134631      0.329042
      4.64622     16.53531     12.47363        -0.676196      6.146361     -0.304372
      5.06224      6.66659     16.24528         0.004659     -0.002064      0.001937
     15.76849     14.72770     15.99694         0.005906     -0.004326     -0.005986
      5.07503     11.63628     14.48205         0.004161     -0.007331     -0.005053
      8.63383     13.32142     12.34509        -0.372081      0.044328     -0.066054
     18.66765     16.08923     16.00921         0.003158     -0.000756      0.003341
     20.59321     16.52910     13.76268         0.009261      0.001722     -0.002843
     13.51502     10.42839     13.78402        -0.005509     -0.008827      0.009991
     13.80858      2.09136     14.11894        -0.000338     -0.000840     -0.001224
     20.08975      2.75648     13.31200        -0.161063     -0.000242     -0.441359
     19.55865     10.94484     17.36332         0.005095      0.000589     -0.000728
      3.13099      6.52942      9.59393        -0.082596     -0.107256      0.083972
     18.51026      5.07285     11.87902        -0.259789      0.112279      0.096073
      9.34523      3.21643     10.64590        -0.137577     -0.295810      0.263162
     20.04682     13.59179     16.03413        -0.005708     -0.002470      0.000151
      6.63175     16.95993     14.77412        -0.001584     -0.004726      0.004073
      0.54021      5.98812     13.50205         0.277499      0.212512     -0.385445
     13.45118     12.60314     11.70944         3.877343     -0.923837     -2.381024
      5.39024     13.63805     12.15046         0.197320     -0.594156      0.047685
     13.89560      5.14054     14.72820        -0.005872      0.000898     -0.000639
     22.84359      4.93901     16.20049        -0.009141     -0.001699      0.001811
     20.81045      0.46044     11.40393         0.024793      0.035066      0.139845
      2.45406      3.54099     13.92070         0.000236     -0.000112     -0.001020
      1.12715     13.28354     12.97472        -0.161840     -0.592825     -0.246391
      5.43322      3.74596     15.08557        -0.001136     -0.003282      0.004788
     13.14328      4.67139     10.24864         8.316274     -5.339237     -3.546426
     11.12699     11.39598     16.66712         0.005865     -0.005123     -0.000099
      6.60382     13.97647     16.06743         0.009453     -0.008324      0.003239
      4.88127     11.65920      9.99509         0.092181     -0.051918      0.068470
     17.33897     12.86894     14.40722        -0.001075      0.002396     -0.001987
     23.09140     17.94861     14.79306         0.012123      0.005352     -0.002374
     16.46059     13.35206     11.67438        -0.732234     -1.387186      0.408528
     18.44981      1.06951     15.50531        -0.003382      0.003872      0.004340
     10.68290      5.95195     11.00304        -1.171285      0.575371      0.530897
     10.50186     17.00201     15.97164         0.001188     -0.009716      0.000075
     11.89375      0.77263     15.75956        -0.006751     -0.002618      0.001085
      5.71814      6.71222     11.31648         0.035730     -0.096181     -0.062695
     15.41693      5.98005     12.10687        -0.130076     -0.414920     -0.877635
     10.78472      5.79941     14.22312        -0.009213      0.003758      0.005172
      7.89661     10.69049     10.72869        -0.103229     -0.050628      0.012412
     18.81285      8.63694     15.58804        -0.004645     -0.005345     -0.003233
      1.62029     16.28844     12.91761        -0.331386      6.422599     -0.509372
      4.96103      2.61769     10.04353        -0.067104     -0.040483      0.095126
      1.83153      8.95162     13.29887         0.065019     -0.110298     -0.281622
     13.05344     15.44546     12.76235       -22.325814    -15.873457      4.765856
     16.81898     10.58905     16.38851        -0.006968      0.001240      0.002690
      6.71066      3.80730     12.34244        -0.222900      0.031055     -0.750822
      2.06461     11.33344     15.26304        -0.003975      0.000046     -0.009780
      8.25900      0.39377     15.55112        -0.000636      0.001080      0.001028
     11.37780      8.77514     15.43677        -0.007476     -0.004632      0.000182
     10.94666      9.02852     18.77379         0.003313      0.007505     -0.014802
 -----------------------------------------------------------------------------------
    total drift:                                0.081702      0.127362      0.646857


--------------------------------------------------------------------------------------------------------



  FREE ENERGIE OF THE ION-ELECTRON SYSTEM (eV)
  ---------------------------------------------------
  free  energy   TOTEN  =     -1893.58013851 eV

  energy  without entropy=    -1893.58013851  energy(sigma->0) =    -1893.58013851



--------------------------------------------------------------------------------------------------------


    POTLOK:  cpu time    0.8270: real time    0.8290


--------------------------------------------------------------------------------------------------------


 stress matrix after NEB project (eV)
    -32.68683      0.08253      0.25900
      0.08253    -33.43578     -0.02744
      0.25900     -0.02744    -25.19405
  FORCES: max atom, RMS     0.046680    0.010631
  FORCE total and by dimension    0.176932    0.044078
  Stress total and by dimension   53.115627   33.435780
 Quasi-Newton relaxation of ions (Broydens 2nd method)
  g(Force)  = 0.151E-02   g(Stress)= 0.000E+00

 Reset! Starting new Quasi-Newton update for ions 


--------------------------------------------------------------------------------------------------------


  
 reached required accuracy - stopping structural energy minimisation
     LOOP+:  cpu time 1268.9041: real time 1273.5162
    4ORBIT:  cpu time    0.0000: real time    0.0000

 total amount of memory used by VASP MPI-rank0   703386. kBytes
=======================================================================

   base      :      30000. kBytes
   nonlr-proj:      17035. kBytes
   fftplans  :      30982. kBytes
   grid      :      57864. kBytes
   one-center:       1088. kBytes
   wavefun   :     566417. kBytes

  
  
 General timing and accounting informations for this job:
 ========================================================
  
                  Total CPU time used (sec):     1413.211
                            User time (sec):     1409.935
                          System time (sec):        3.276
                         Elapsed time (sec):     1426.296
  
                   Maximum memory used (kb):      997868.
                   Average memory used (kb):           0.
  
                          Minor page faults:      3217977
                          Major page faults:          214
                 Voluntary context switches:         5543
